 running on    2 total cores
 distrk:  each k-point on    2 cores,    1 groups
 distr:  one band on    1 cores,    2 groups
 using from now: INCAR     
 vasp.5.3.2 13Sep12 (build Jun 30 2016 14:08:18) complex                        
  
 POSCAR found type information on POSCAR  Al
 POSCAR found :  1 types and       4 ions
 LDA part: xc-table for Ceperly-Alder, standard interpolation
 POSCAR, INCAR and KPOINTS ok, starting setup
 WARNING: small aliasing (wrap around) errors must be expected
 FFT: planning ...
 WAVECAR not read
 entering main loop
       N       E                     dE             d eps       ncg     rms          rms(c)
DAV:   1    -0.728144963234E+00   -0.72814E+00   -0.26692E+03   700   0.474E+02
DAV:   2    -0.144288349830E+02   -0.13701E+02   -0.12781E+02   966   0.687E+01
DAV:   3    -0.148339188783E+02   -0.40508E+00   -0.39898E+00   908   0.988E+00
DAV:   4    -0.148360194642E+02   -0.21006E-02   -0.20969E-02   872   0.789E-01
DAV:   5    -0.148360274113E+02   -0.79471E-05   -0.79477E-05   844   0.441E-02    0.181E+00
DAV:   6    -0.147893553098E+02    0.46672E-01   -0.60936E-03   798   0.532E-01    0.113E+00
DAV:   7    -0.147585114661E+02    0.30844E-01   -0.16944E-02   742   0.967E-01    0.531E-02
DAV:   8    -0.147585474260E+02   -0.35960E-04   -0.12884E-04   910   0.995E-02    0.131E-02
DAV:   9    -0.147585527375E+02   -0.53115E-05   -0.78493E-07   654   0.712E-03    0.178E-03
DAV:  10    -0.147585517077E+02    0.10299E-05   -0.66524E-08   442   0.244E-03    0.382E-04
DAV:  11    -0.147585515920E+02    0.11565E-06   -0.62340E-09   398   0.602E-04
   1 F= -.14758552E+02 E0= -.14758214E+02  d E =-.147586E+02
 curvature:   0.00 expect dE= 0.000E+00 dE for cont linesearch  0.000E+00
 trial: gam= 0.00000 g(F)=  0.672E-64 g(S)=  0.351E-03 ort = 0.000E+00 (trialstep = 0.100E+01)
 search vector abs. value=  0.351E-03
 bond charge predicted
       N       E                     dE             d eps       ncg     rms          rms(c)
DAV:   1    -0.147587282868E+02   -0.17658E-03   -0.24030E-03   796   0.305E-01    0.242E-02
DAV:   2    -0.147587210846E+02    0.72022E-05   -0.18612E-05   786   0.308E-02    0.153E-02
DAV:   3    -0.147587162957E+02    0.47889E-05   -0.37106E-06   716   0.142E-02    0.618E-04
DAV:   4    -0.147587163040E+02   -0.82459E-08   -0.26436E-08   362   0.161E-03
   2 F= -.14758716E+02 E0= -.14758388E+02  d E =-.164712E-03
 trial-energy change:   -0.000165  1 .order   -0.000162   -0.000351    0.000027
 step:   0.9285(harm=  0.9285)  dis= 0.00000  next Energy=   -14.758715 (dE=-0.163E-03)
 bond charge predicted
       N       E                     dE             d eps       ncg     rms          rms(c)
DAV:   1    -0.147587174151E+02   -0.11193E-05   -0.12334E-05   790   0.218E-02    0.171E-03
DAV:   2    -0.147587172972E+02    0.11790E-06   -0.81583E-08   356   0.218E-03
   3 F= -.14758717E+02 E0= -.14758389E+02  d E =-.165705E-03
 curvature:  -0.46 expect dE=-0.771E-08 dE for cont linesearch -0.771E-08
 trial: gam= 0.00000 g(F)=  0.212E-63 g(S)=  0.166E-07 ort =-0.241E-05 (trialstep = 0.986E+00)
 search vector abs. value=  0.167E-07
 reached required accuracy - stopping structural energy minimisation
 writing wavefunctions

 ----------------------------------------------------------------------------- 
|                                                                             |
|           W    W    AA    RRRRR   N    N  II  N    N   GGGG   !!!           |
|           W    W   A  A   R    R  NN   N  II  NN   N  G    G  !!!           |
|           W    W  A    A  R    R  N N  N  II  N N  N  G       !!!           |
|           W WW W  AAAAAA  RRRRR   N  N N  II  N  N N  G  GGG   !            |
|           WW  WW  A    A  R   R   N   NN  II  N   NN  G    G                |
|           W    W  A    A  R    R  N    N  II  N    N   GGGG   !!!           |
|                                                                             |
|      The partial DOS and the PROCAR file are not evaluated for NPAR/=1      |
|      please rerun with NPAR=1                                               |
|                                                                             |
 ----------------------------------------------------------------------------- 


------------------------------------------------------------
Sender: LSF System <lsfadmin@alps6-41>
Subject: Job 400022: <vasp> in cluster <cluster5> Done

Job <vasp> was submitted from host <alps6> by user <s11gyg07> in cluster <cluster5>.
Job was executed on host(s) <2*alps6-41>, in queue <test>, as user <s11gyg07> in cluster <cluster5>.
</home/s11gyg07> was used as the home directory.
</home/s11gyg07/Hands-on-1016/Al/1-rlx> was used as the working directory.
Started at Mon Oct 16 15:54:03 2017
Results reported on Mon Oct 16 15:54:15 2017

Your job looked like:

------------------------------------------------------------
# LSBATCH: User input
#!/bin/sh
#BSUB -a mvapich
#BSUB -n 2 
#BSUB -J vasp
#BSUB -o %J.out
#BSUB -e %J.err
#BSUB -q  test              # depend on -n
#BSUB -R 'span[ptile=48]' # uncomment when multi-nodes
#BSUB -R "ipathavail==0"  # uncomment when multi-nodes

source /pkg/mpi/intel/12/mvapich2-1.8/bin/mpivars.sh

VASP=/home/$USER/bin/vasp_ntu

mpiexec -np ${LSB_DJOB_NUMPROC} ${VASP}

------------------------------------------------------------

Successfully completed.

Resource usage summary:

    CPU time :                                   17.34 sec.
    Total Requested Memory :                     -
    Delta Memory :                               -

The output (if any) is above this job summary.



PS:

Read file <400022.err> for stderr output of this job.

