bcc Al                                  
   4.05000000000000     
     0.998812    0.000000    0.000000
     0.000000    0.998812    0.000000
     0.000000    0.000000    0.998812
   Al
     4
Direct
  0.000000  0.000000  0.000000
  0.000000  0.500000  0.500000
  0.500000  0.000000  0.500000
  0.500000  0.500000  0.000000
 
   32   32   32
 -.85652     -.18792      1.7032      4.4667      7.5405      10.274      12.138      12.913      12.731      11.950    
  10.906      9.8520      8.9404      8.2297      7.7271      7.4266      7.3263      7.4266      7.7271      8.2297    
  8.9404      9.8520      10.906      11.950      12.731      12.913      12.138      10.274      7.5405      4.4667    
  1.7032     -.18792     -.18792     0.46628      2.3110      4.9916      7.9510      10.557      12.306      12.998    
  12.774      11.982      10.945      9.9059      9.0099      8.3124      7.8195      7.5249      7.4266      7.5249    
  7.8195      8.3124      9.0099      9.9059      10.945      11.982      12.774      12.998      12.306      10.557    
  7.9510      4.9916      2.3110     0.46628      1.7032      2.3110      4.0105      6.4424      9.0700      11.316    
  12.747      13.219      12.888      12.075      11.062      10.069      9.2196      8.5612      8.0966      7.8195    
  7.7271      7.8195      8.0966      8.5612      9.2196      10.069      11.062      12.075      12.888      13.219    
  12.747      11.316      9.0700      6.4424      4.0105      2.3110      4.4667      4.9916      6.4424      8.4718    
  10.592      12.314      13.305      13.490      13.038      12.216      11.259      10.345      9.5737      8.9792    
  8.5612      8.3124      8.2297      8.3124      8.5612      8.9792      9.5737      10.345      11.259      12.216    
  13.038      13.490      13.305      12.314      10.592      8.4718      6.4424      4.9916      7.5405      7.9510    
  9.0700      10.592      12.111      13.252      13.790      13.713      13.183      12.396      11.537      10.741    
  10.080      9.5737      9.2196      9.0099      8.9404      9.0099      9.2196      9.5737      10.080      10.741    
  11.537      12.396      13.183      13.713      13.790      13.252      12.111      10.592      9.0700      7.9510    
  10.274      10.557      11.316      12.314      13.252      13.874      14.053      13.820      13.291      12.606    
  11.900      11.263      10.741      10.345      10.069      9.9059      9.8520      9.9059      10.069      10.345    
  10.741      11.263      11.900      12.606      13.291      13.820      14.053      13.874      13.252      12.314    
  11.316      10.557      12.138      12.306      12.747      13.305      13.790      14.053      14.042      13.785    
  13.354      12.846      12.343      11.900      11.537      11.259      11.062      10.945      10.906      10.945    
  11.062      11.259      11.537      11.900      12.343      12.846      13.354      13.785      14.042      14.053    
  13.790      13.305      12.747      12.306      12.913      12.998      13.219      13.490      13.713      13.820    
  13.785      13.623      13.382      13.110      12.846      12.606      12.396      12.216      12.075      11.982    
  11.950      11.982      12.075      12.216      12.396      12.606      12.846      13.110      13.382      13.623    
  13.785      13.820      13.713      13.490      13.219      12.998      12.731      12.774      12.888      13.038    
  13.183      13.291      13.354      13.382      13.388      13.382      13.354      13.291      13.183      13.038    
  12.888      12.774      12.731      12.774      12.888      13.038      13.183      13.291      13.354      13.382    
  13.388      13.382      13.354      13.291      13.183      13.038      12.888      12.774      11.950      11.982    
  12.075      12.216      12.396      12.606      12.846      13.110      13.382      13.623      13.785      13.820    
  13.713      13.490      13.219      12.998      12.913      12.998      13.219      13.490      13.713      13.820    
  13.785      13.623      13.382      13.110      12.846      12.606      12.396      12.216      12.075      11.982    
  10.906      10.945      11.062      11.259      11.537      11.900      12.343      12.846      13.354      13.785    
  14.042      14.053      13.790      13.305      12.747      12.306      12.138      12.306      12.747      13.305    
  13.790      14.053      14.042      13.785      13.354      12.846      12.343      11.900      11.537      11.259    
  11.062      10.945      9.8520      9.9059      10.069      10.345      10.741      11.263      11.900      12.606    
  13.291      13.820      14.053      13.874      13.252      12.314      11.316      10.557      10.274      10.557    
  11.316      12.314      13.252      13.874      14.053      13.820      13.291      12.606      11.900      11.263    
  10.741      10.345      10.069      9.9059      8.9404      9.0099      9.2196      9.5737      10.080      10.741    
  11.537      12.396      13.183      13.713      13.790      13.252      12.111      10.592      9.0700      7.9510    
  7.5405      7.9510      9.0700      10.592      12.111      13.252      13.790      13.713      13.183      12.396    
  11.537      10.741      10.080      9.5737      9.2196      9.0099      8.2297      8.3124      8.5612      8.9792    
  9.5737      10.345      11.259      12.216      13.038      13.490      13.305      12.314      10.592      8.4718    
  6.4424      4.9916      4.4667      4.9916      6.4424      8.4718      10.592      12.314      13.305      13.490    
  13.038      12.216      11.259      10.345      9.5737      8.9792      8.5612      8.3124      7.7271      7.8195    
  8.0966      8.5612      9.2196      10.069      11.062      12.075      12.888      13.219      12.747      11.316    
  9.0700      6.4424      4.0105      2.3110      1.7032      2.3110      4.0105      6.4424      9.0700      11.316    
  12.747      13.219      12.888      12.075      11.062      10.069      9.2196      8.5612      8.0966      7.8195    
  7.4266      7.5249      7.8195      8.3124      9.0099      9.9059      10.945      11.982      12.774      12.998    
  12.306      10.557      7.9510      4.9916      2.3110     0.46628     -.18792     0.46628      2.3110      4.9916    
  7.9510      10.557      12.306      12.998      12.774      11.982      10.945      9.9059      9.0099      8.3124    
  7.8195      7.5249      7.3263      7.4266      7.7271      8.2297      8.9404      9.8520      10.906      11.950    
  12.731      12.913      12.138      10.274      7.5405      4.4667      1.7032     -.18792     -.85652     -.18792    
  1.7032      4.4667      7.5405      10.274      12.138      12.913      12.731      11.950      10.906      9.8520    
  8.9404      8.2297      7.7271      7.4266      7.4266      7.5249      7.8195      8.3124      9.0099      9.9059    
  10.945      11.982      12.774      12.998      12.306      10.557      7.9510      4.9916      2.3110     0.46628    
 -.18792     0.46628      2.3110      4.9916      7.9510      10.557      12.306      12.998      12.774      11.982    
  10.945      9.9059      9.0099      8.3124      7.8195      7.5249      7.7271      7.8195      8.0966      8.5612    
  9.2196      10.069      11.062      12.075      12.888      13.219      12.747      11.316      9.0700      6.4424    
  4.0105      2.3110      1.7032      2.3110      4.0105      6.4424      9.0700      11.316      12.747      13.219    
  12.888      12.075      11.062      10.069      9.2196      8.5612      8.0966      7.8195      8.2297      8.3124    
  8.5612      8.9792      9.5737      10.345      11.259      12.216      13.038      13.490      13.305      12.314    
  10.592      8.4718      6.4424      4.9916      4.4667      4.9916      6.4424      8.4718      10.592      12.314    
  13.305      13.490      13.038      12.216      11.259      10.345      9.5737      8.9792      8.5612      8.3124    
  8.9404      9.0099      9.2196      9.5737      10.080      10.741      11.537      12.396      13.183      13.713    
  13.790      13.252      12.111      10.592      9.0700      7.9510      7.5405      7.9510      9.0700      10.592    
  12.111      13.252      13.790      13.713      13.183      12.396      11.537      10.741      10.080      9.5737    
  9.2196      9.0099      9.8520      9.9059      10.069      10.345      10.741      11.263      11.900      12.606    
  13.291      13.820      14.053      13.874      13.252      12.314      11.316      10.557      10.274      10.557    
  11.316      12.314      13.252      13.874      14.053      13.820      13.291      12.606      11.900      11.263    
  10.741      10.345      10.069      9.9059      10.906      10.945      11.062      11.259      11.537      11.900    
  12.343      12.846      13.354      13.785      14.042      14.053      13.790      13.305      12.747      12.306    
  12.138      12.306      12.747      13.305      13.790      14.053      14.042      13.785      13.354      12.846    
  12.343      11.900      11.537      11.259      11.062      10.945      11.950      11.982      12.075      12.216    
  12.396      12.606      12.846      13.110      13.382      13.623      13.785      13.820      13.713      13.490    
  13.219      12.998      12.913      12.998      13.219      13.490      13.713      13.820      13.785      13.623    
  13.382      13.110      12.846      12.606      12.396      12.216      12.075      11.982      12.731      12.774    
  12.888      13.038      13.183      13.291      13.354      13.382      13.388      13.382      13.354      13.291    
  13.183      13.038      12.888      12.774      12.731      12.774      12.888      13.038      13.183      13.291    
  13.354      13.382      13.388      13.382      13.354      13.291      13.183      13.038      12.888      12.774    
  12.913      12.998      13.219      13.490      13.713      13.820      13.785      13.623      13.382      13.110    
  12.846      12.606      12.396      12.216      12.075      11.982      11.950      11.982      12.075      12.216    
  12.396      12.606      12.846      13.110      13.382      13.623      13.785      13.820      13.713      13.490    
  13.219      12.998      12.138      12.306      12.747      13.305      13.790      14.053      14.042      13.785    
  13.354      12.846      12.343      11.900      11.537      11.259      11.062      10.945      10.906      10.945    
  11.062      11.259      11.537      11.900      12.343      12.846      13.354      13.785      14.042      14.053    
  13.790      13.305      12.747      12.306      10.274      10.557      11.316      12.314      13.252      13.874    
  14.053      13.820      13.291      12.606      11.900      11.263      10.741      10.345      10.069      9.9059    
  9.8520      9.9059      10.069      10.345      10.741      11.263      11.900      12.606      13.291      13.820    
  14.053      13.874      13.252      12.314      11.316      10.557      7.5405      7.9510      9.0700      10.592    
  12.111      13.252      13.790      13.713      13.183      12.396      11.537      10.741      10.080      9.5737    
  9.2196      9.0099      8.9404      9.0099      9.2196      9.5737      10.080      10.741      11.537      12.396    
  13.183      13.713      13.790      13.252      12.111      10.592      9.0700      7.9510      4.4667      4.9916    
  6.4424      8.4718      10.592      12.314      13.305      13.490      13.038      12.216      11.259      10.345    
  9.5737      8.9792      8.5612      8.3124      8.2297      8.3124      8.5612      8.9792      9.5737      10.345    
  11.259      12.216      13.038      13.490      13.305      12.314      10.592      8.4718      6.4424      4.9916    
  1.7032      2.3110      4.0105      6.4424      9.0700      11.316      12.747      13.219      12.888      12.075    
  11.062      10.069      9.2196      8.5612      8.0966      7.8195      7.7271      7.8195      8.0966      8.5612    
  9.2196      10.069      11.062      12.075      12.888      13.219      12.747      11.316      9.0700      6.4424    
  4.0105      2.3110     -.18792     0.46628      2.3110      4.9916      7.9510      10.557      12.306      12.998    
  12.774      11.982      10.945      9.9059      9.0099      8.3124      7.8195      7.5249      7.4266      7.5249    
  7.8195      8.3124      9.0099      9.9059      10.945      11.982      12.774      12.998      12.306      10.557    
  7.9510      4.9916      2.3110     0.46628     -.18792     0.46628      2.3110      4.9916      7.9510      10.557    
  12.306      12.998      12.774      11.982      10.945      9.9059      9.0099      8.3124      7.8195      7.5249    
  7.4266      7.5249      7.8195      8.3124      9.0099      9.9059      10.945      11.982      12.774      12.998    
  12.306      10.557      7.9510      4.9916      2.3110     0.46628     0.46628      1.1053      2.9020      5.4989    
  8.3448      10.826      12.463      13.077      12.813      12.012      10.982      9.9580      9.0777      8.3933    
  7.9099      7.6212      7.5249      7.6212      7.9099      8.3933      9.0777      9.9580      10.982      12.012    
  12.813      13.077      12.463      10.826      8.3448      5.4989      2.9020      1.1053      2.3110      2.9020    
  4.5505      6.8976      9.4157      11.546      12.877      13.280      12.917      12.098      11.094      10.116    
  9.2821      8.6365      8.1813      7.9099      7.8195      7.9099      8.1813      8.6365      9.2821      10.116    
  11.094      12.098      12.917      13.280      12.877      11.546      9.4157      6.8976      4.5505      2.9020    
  4.9916      5.4989      6.8976      8.8453      10.865      12.487      13.395      13.527      13.053      12.229    
  11.282      10.384      9.6277      9.0455      8.6365      8.3933      8.3124      8.3933      8.6365      9.0455    
  9.6277      10.384      11.282      12.229      13.053      13.527      13.395      12.487      10.865      8.8453    
  6.8976      5.4989      7.9510      8.3448      9.4157      10.865      12.301      13.361      13.837      13.724    
  13.180      12.397      11.550      10.769      10.122      9.6277      9.2821      9.0777      9.0099      9.0777    
  9.2821      9.6277      10.122      10.769      11.550      12.397      13.180      13.724      13.837      13.361    
  12.301      10.865      9.4157      8.3448      10.557      10.826      11.546      12.487      13.361      13.925    
  14.063      13.808      13.273      12.595      11.900      11.278      10.769      10.384      10.116      9.9580    
  9.9059      9.9580      10.116      10.384      10.769      11.278      11.900      12.595      13.273      13.808    
  14.063      13.925      13.361      12.487      11.546      10.826      12.306      12.463      12.877      13.395    
  13.837      14.063      14.026      13.756      13.324      12.822      12.331      11.900      11.550      11.282    
  11.094      10.982      10.945      10.982      11.094      11.282      11.550      11.900      12.331      12.822    
  13.324      13.756      14.026      14.063      13.837      13.395      12.877      12.463      12.998      13.077    
  13.280      13.527      13.724      13.808      13.756      13.586      13.343      13.077      12.822      12.595    
  12.397      12.229      12.098      12.012      11.982      12.012      12.098      12.229      12.397      12.595    
  12.822      13.077      13.343      13.586      13.756      13.808      13.724      13.527      13.280      13.077    
  12.774      12.813      12.917      13.053      13.180      13.273      13.324      13.343      13.347      13.343    
  13.324      13.273      13.180      13.053      12.917      12.813      12.774      12.813      12.917      13.053    
  13.180      13.273      13.324      13.343      13.347      13.343      13.324      13.273      13.180      13.053    
  12.917      12.813      11.982      12.012      12.098      12.229      12.397      12.595      12.822      13.077    
  13.343      13.586      13.756      13.808      13.724      13.527      13.280      13.077      12.998      13.077    
  13.280      13.527      13.724      13.808      13.756      13.586      13.343      13.077      12.822      12.595    
  12.397      12.229      12.098      12.012      10.945      10.982      11.094      11.282      11.550      11.900    
  12.331      12.822      13.324      13.756      14.026      14.063      13.837      13.395      12.877      12.463    
  12.306      12.463      12.877      13.395      13.837      14.063      14.026      13.756      13.324      12.822    
  12.331      11.900      11.550      11.282      11.094      10.982      9.9059      9.9580      10.116      10.384    
  10.769      11.278      11.900      12.595      13.273      13.808      14.063      13.925      13.361      12.487    
  11.546      10.826      10.557      10.826      11.546      12.487      13.361      13.925      14.063      13.808    
  13.273      12.595      11.900      11.278      10.769      10.384      10.116      9.9580      9.0099      9.0777    
  9.2821      9.6277      10.122      10.769      11.550      12.397      13.180      13.724      13.837      13.361    
  12.301      10.865      9.4157      8.3448      7.9510      8.3448      9.4157      10.865      12.301      13.361    
  13.837      13.724      13.180      12.397      11.550      10.769      10.122      9.6277      9.2821      9.0777    
  8.3124      8.3933      8.6365      9.0455      9.6277      10.384      11.282      12.229      13.053      13.527    
  13.395      12.487      10.865      8.8453      6.8976      5.4989      4.9916      5.4989      6.8976      8.8453    
  10.865      12.487      13.395      13.527      13.053      12.229      11.282      10.384      9.6277      9.0455    
  8.6365      8.3933      7.8195      7.9099      8.1813      8.6365      9.2821      10.116      11.094      12.098    
  12.917      13.280      12.877      11.546      9.4157      6.8976      4.5505      2.9020      2.3110      2.9020    
  4.5505      6.8976      9.4157      11.546      12.877      13.280      12.917      12.098      11.094      10.116    
  9.2821      8.6365      8.1813      7.9099      7.5249      7.6212      7.9099      8.3933      9.0777      9.9580    
  10.982      12.012      12.813      13.077      12.463      10.826      8.3448      5.4989      2.9020      1.1053    
 0.46628      1.1053      2.9020      5.4989      8.3448      10.826      12.463      13.077      12.813      12.012    
  10.982      9.9580      9.0777      8.3933      7.9099      7.6212      7.4266      7.5249      7.8195      8.3124    
  9.0099      9.9059      10.945      11.982      12.774      12.998      12.306      10.557      7.9510      4.9916    
  2.3110     0.46628     -.18792     0.46628      2.3110      4.9916      7.9510      10.557      12.306      12.998    
  12.774      11.982      10.945      9.9059      9.0099      8.3124      7.8195      7.5249      7.5249      7.6212    
  7.9099      8.3933      9.0777      9.9580      10.982      12.012      12.813      13.077      12.463      10.826    
  8.3448      5.4989      2.9020      1.1053     0.46628      1.1053      2.9020      5.4989      8.3448      10.826    
  12.463      13.077      12.813      12.012      10.982      9.9580      9.0777      8.3933      7.9099      7.6212    
  7.8195      7.9099      8.1813      8.6365      9.2821      10.116      11.094      12.098      12.917      13.280    
  12.877      11.546      9.4157      6.8976      4.5505      2.9020      2.3110      2.9020      4.5505      6.8976    
  9.4157      11.546      12.877      13.280      12.917      12.098      11.094      10.116      9.2821      8.6365    
  8.1813      7.9099      8.3124      8.3933      8.6365      9.0455      9.6277      10.384      11.282      12.229    
  13.053      13.527      13.395      12.487      10.865      8.8453      6.8976      5.4989      4.9916      5.4989    
  6.8976      8.8453      10.865      12.487      13.395      13.527      13.053      12.229      11.282      10.384    
  9.6277      9.0455      8.6365      8.3933      9.0099      9.0777      9.2821      9.6277      10.122      10.769    
  11.550      12.397      13.180      13.724      13.837      13.361      12.301      10.865      9.4157      8.3448    
  7.9510      8.3448      9.4157      10.865      12.301      13.361      13.837      13.724      13.180      12.397    
  11.550      10.769      10.122      9.6277      9.2821      9.0777      9.9059      9.9580      10.116      10.384    
  10.769      11.278      11.900      12.595      13.273      13.808      14.063      13.925      13.361      12.487    
  11.546      10.826      10.557      10.826      11.546      12.487      13.361      13.925      14.063      13.808    
  13.273      12.595      11.900      11.278      10.769      10.384      10.116      9.9580      10.945      10.982    
  11.094      11.282      11.550      11.900      12.331      12.822      13.324      13.756      14.026      14.063    
  13.837      13.395      12.877      12.463      12.306      12.463      12.877      13.395      13.837      14.063    
  14.026      13.756      13.324      12.822      12.331      11.900      11.550      11.282      11.094      10.982    
  11.982      12.012      12.098      12.229      12.397      12.595      12.822      13.077      13.343      13.586    
  13.756      13.808      13.724      13.527      13.280      13.077      12.998      13.077      13.280      13.527    
  13.724      13.808      13.756      13.586      13.343      13.077      12.822      12.595      12.397      12.229    
  12.098      12.012      12.774      12.813      12.917      13.053      13.180      13.273      13.324      13.343    
  13.347      13.343      13.324      13.273      13.180      13.053      12.917      12.813      12.774      12.813    
  12.917      13.053      13.180      13.273      13.324      13.343      13.347      13.343      13.324      13.273    
  13.180      13.053      12.917      12.813      12.998      13.077      13.280      13.527      13.724      13.808    
  13.756      13.586      13.343      13.077      12.822      12.595      12.397      12.229      12.098      12.012    
  11.982      12.012      12.098      12.229      12.397      12.595      12.822      13.077      13.343      13.586    
  13.756      13.808      13.724      13.527      13.280      13.077      12.306      12.463      12.877      13.395    
  13.837      14.063      14.026      13.756      13.324      12.822      12.331      11.900      11.550      11.282    
  11.094      10.982      10.945      10.982      11.094      11.282      11.550      11.900      12.331      12.822    
  13.324      13.756      14.026      14.063      13.837      13.395      12.877      12.463      10.557      10.826    
  11.546      12.487      13.361      13.925      14.063      13.808      13.273      12.595      11.900      11.278    
  10.769      10.384      10.116      9.9580      9.9059      9.9580      10.116      10.384      10.769      11.278    
  11.900      12.595      13.273      13.808      14.063      13.925      13.361      12.487      11.546      10.826    
  7.9510      8.3448      9.4157      10.865      12.301      13.361      13.837      13.724      13.180      12.397    
  11.550      10.769      10.122      9.6277      9.2821      9.0777      9.0099      9.0777      9.2821      9.6277    
  10.122      10.769      11.550      12.397      13.180      13.724      13.837      13.361      12.301      10.865    
  9.4157      8.3448      4.9916      5.4989      6.8976      8.8453      10.865      12.487      13.395      13.527    
  13.053      12.229      11.282      10.384      9.6277      9.0455      8.6365      8.3933      8.3124      8.3933    
  8.6365      9.0455      9.6277      10.384      11.282      12.229      13.053      13.527      13.395      12.487    
  10.865      8.8453      6.8976      5.4989      2.3110      2.9020      4.5505      6.8976      9.4157      11.546    
  12.877      13.280      12.917      12.098      11.094      10.116      9.2821      8.6365      8.1813      7.9099    
  7.8195      7.9099      8.1813      8.6365      9.2821      10.116      11.094      12.098      12.917      13.280    
  12.877      11.546      9.4157      6.8976      4.5505      2.9020     0.46628      1.1053      2.9020      5.4989    
  8.3448      10.826      12.463      13.077      12.813      12.012      10.982      9.9580      9.0777      8.3933    
  7.9099      7.6212      7.5249      7.6212      7.9099      8.3933      9.0777      9.9580      10.982      12.012    
  12.813      13.077      12.463      10.826      8.3448      5.4989      2.9020      1.1053      1.7032      2.3110    
  4.0105      6.4424      9.0700      11.316      12.747      13.219      12.888      12.075      11.062      10.069    
  9.2196      8.5612      8.0966      7.8195      7.7271      7.8195      8.0966      8.5612      9.2196      10.069    
  11.062      12.075      12.888      13.219      12.747      11.316      9.0700      6.4424      4.0105      2.3110    
  2.3110      2.9020      4.5505      6.8976      9.4157      11.546      12.877      13.280      12.917      12.098    
  11.094      10.116      9.2821      8.6365      8.1813      7.9099      7.8195      7.9099      8.1813      8.6365    
  9.2821      10.116      11.094      12.098      12.917      13.280      12.877      11.546      9.4157      6.8976    
  4.5505      2.9020      4.0105      4.5505      6.0455      8.1446      10.350      12.155      13.212      13.435    
  12.993      12.164      11.191      10.259      9.4711      8.8633      8.4358      8.1813      8.0966      8.1813    
  8.4358      8.8633      9.4711      10.259      11.191      12.164      12.993      13.435      13.212      12.155    
  10.350      8.1446      6.0455      4.5505      6.4424      6.8976      8.1446      9.8576      11.595      12.938    
  13.621      13.614      13.088      12.267      11.355      10.503      9.7915      9.2458      8.8633      8.6365    
  8.5612      8.6365      8.8633      9.2458      9.7915      10.503      11.355      12.267      13.088      13.614    
  13.621      12.938      11.595      9.8576      8.1446      6.8976      9.0700      9.4157      10.350      11.595    
  12.797      13.637      13.947      13.742      13.170      12.400      11.592      10.857      10.252      9.7915    
  9.4711      9.2821      9.2196      9.2821      9.4711      9.7915      10.252      10.857      11.592      12.400    
  13.170      13.742      13.947      13.637      12.797      11.595      10.350      9.4157      11.316      11.546    
  12.155      12.938      13.637      14.046      14.075      13.766      13.220      12.563      11.906      11.326    
  10.857      10.503      10.259      10.116      10.069      10.116      10.259      10.503      10.857      11.326    
  11.906      12.563      13.220      13.766      14.075      14.046      13.637      12.938      12.155      11.546    
  12.747      12.877      13.212      13.621      13.947      14.075      13.973      13.671      13.237      12.757    
  12.300      11.906      11.592      11.355      11.191      11.094      11.062      11.094      11.191      11.355    
  11.592      11.906      12.300      12.757      13.237      13.671      13.973      14.075      13.947      13.621    
  13.212      12.877      13.219      13.280      13.435      13.614      13.742      13.766      13.671      13.479    
  13.235      12.984      12.757      12.563      12.400      12.267      12.164      12.098      12.075      12.098    
  12.164      12.267      12.400      12.563      12.757      12.984      13.235      13.479      13.671      13.766    
  13.742      13.614      13.435      13.280      12.888      12.917      12.993      13.088      13.170      13.220    
  13.237      13.235      13.231      13.235      13.237      13.220      13.170      13.088      12.993      12.917    
  12.888      12.917      12.993      13.088      13.170      13.220      13.237      13.235      13.231      13.235    
  13.237      13.220      13.170      13.088      12.993      12.917      12.075      12.098      12.164      12.267    
  12.400      12.563      12.757      12.984      13.235      13.479      13.671      13.766      13.742      13.614    
  13.435      13.280      13.219      13.280      13.435      13.614      13.742      13.766      13.671      13.479    
  13.235      12.984      12.757      12.563      12.400      12.267      12.164      12.098      11.062      11.094    
  11.191      11.355      11.592      11.906      12.300      12.757      13.237      13.671      13.973      14.075    
  13.947      13.621      13.212      12.877      12.747      12.877      13.212      13.621      13.947      14.075    
  13.973      13.671      13.237      12.757      12.300      11.906      11.592      11.355      11.191      11.094    
  10.069      10.116      10.259      10.503      10.857      11.326      11.906      12.563      13.220      13.766    
  14.075      14.046      13.637      12.938      12.155      11.546      11.316      11.546      12.155      12.938    
  13.637      14.046      14.075      13.766      13.220      12.563      11.906      11.326      10.857      10.503    
  10.259      10.116      9.2196      9.2821      9.4711      9.7915      10.252      10.857      11.592      12.400    
  13.170      13.742      13.947      13.637      12.797      11.595      10.350      9.4157      9.0700      9.4157    