bcc Al                                  
   4.05000000000000     
     0.998897    0.000000    0.000000
     0.000000    0.998897    0.000000
     0.000000    0.000000    0.998897
   Al
     4
Direct
  0.000000  0.000000  0.000000
  0.000000  0.500000  0.500000
  0.500000  0.000000  0.500000
  0.500000  0.500000  0.000000
 
   32   32   32
 -.84712553194E+00 -.18250195397E+00 0.16979552176E+01 0.44475056364E+01 0.75092024806E+01
 0.10236952109E+02 0.12103892729E+02 0.12888234848E+02 0.12718730246E+02 0.11948096848E+02
 0.10912654421E+02 0.98642721598E+01 0.89554408418E+01 0.82461102918E+01 0.77441220118E+01
 0.74439272851E+01 0.73436839924E+01 0.74439272851E+01 0.77441220118E+01 0.82461102918E+01
 0.89554408418E+01 0.98642721598E+01 0.10912654421E+02 0.11948096848E+02 0.12718730246E+02
 0.12888234848E+02 0.12103892729E+02 0.10236952109E+02 0.75092024806E+01 0.44475056364E+01
 0.16979552176E+01 -.18250195397E+00 -.18250195397E+00 0.46793390741E+00 0.23025891027E+01
 0.49702829658E+01 0.79186781235E+01 0.10519781913E+02 0.12272032830E+02 0.12974199507E+02
 0.12762344746E+02 0.11981042872E+02 0.10952164469E+02 0.99183061304E+01 0.90250610742E+01
 0.83288542284E+01 0.78364642164E+01 0.75421633573E+01 0.74439272851E+01 0.75421633573E+01
 0.78364642164E+01 0.83288542284E+01 0.90250610742E+01 0.99183061304E+01 0.10952164469E+02
 0.11981042872E+02 0.12762344746E+02 0.12974199507E+02 0.12272032830E+02 0.10519781913E+02
 0.79186781235E+01 0.49702829658E+01 0.23025891027E+01 0.46793390741E+00 0.16979552176E+01
 0.23025891027E+01 0.39938762325E+01 0.64155158376E+01 0.90352056377E+01 0.11279102525E+02
 0.12715698233E+02 0.13197984426E+02 0.12878764531E+02 0.12075291033E+02 0.11070620892E+02
 0.10081614266E+02 0.92349268970E+01 0.85775261795E+01 0.81134283949E+01 0.78364642164E+01
 0.77441220118E+01 0.78364642164E+01 0.81134283949E+01 0.85775261795E+01 0.92349268970E+01
 0.10081614266E+02 0.11070620892E+02 0.12075291033E+02 0.12878764531E+02 0.13197984426E+02
 0.12715698233E+02 0.11279102525E+02 0.90352056377E+01 0.64155158376E+01 0.39938762325E+01
 0.23025891027E+01 0.44475056364E+01 0.49702829658E+01 0.64155158376E+01 0.84386984701E+01
 0.10555310336E+02 0.12279043209E+02 0.13277594720E+02 0.13473274489E+02 0.13032124384E+02
 0.12219575747E+02 0.11268527312E+02 0.10358308371E+02 0.95891408492E+01 0.89953727289E+01
 0.85775261795E+01 0.83288542284E+01 0.82461102918E+01 0.83288542284E+01 0.85775261795E+01
 0.89953727289E+01 0.95891408492E+01 0.10358308371E+02 0.11268527312E+02 0.12219575747E+02
 0.13032124384E+02 0.13473274489E+02 0.13277594720E+02 0.12279043209E+02 0.10555310336E+02
 0.84386984701E+01 0.64155158376E+01 0.49702829658E+01 0.75092024806E+01 0.79186781235E+01
 0.90352056377E+01 0.10555310336E+02 0.12075480475E+02 0.13221119428E+02 0.13767842095E+02
 0.13701453934E+02 0.13180617758E+02 0.12401923350E+02 0.11548077329E+02 0.10755190779E+02
 0.10094998847E+02 0.95891408492E+01 0.92349268970E+01 0.90250610742E+01 0.89554408418E+01
 0.90250610742E+01 0.92349268970E+01 0.95891408492E+01 0.10094998847E+02 0.10755190779E+02
 0.11548077329E+02 0.12401923350E+02 0.13180617758E+02 0.13701453934E+02 0.13767842095E+02
 0.13221119428E+02 0.12075480475E+02 0.10555310336E+02 0.90352056377E+01 0.79186781235E+01
 0.10236952109E+02 0.10519781913E+02 0.11279102525E+02 0.12279043209E+02 0.13221119428E+02
 0.13850007636E+02 0.14038491729E+02 0.13814028027E+02 0.13293426304E+02 0.12615008104E+02
 0.11911776373E+02 0.11276707180E+02 0.10755190779E+02 0.10358308371E+02 0.10081614266E+02
 0.99183061304E+01 0.98642721598E+01 0.99183061304E+01 0.10081614266E+02 0.10358308371E+02
 0.10755190779E+02 0.11276707180E+02 0.11911776373E+02 0.12615008104E+02 0.13293426304E+02
 0.13814028027E+02 0.14038491729E+02 0.13850007636E+02 0.13221119428E+02 0.12279043209E+02
 0.11279102525E+02 0.10519781913E+02 0.12103892729E+02 0.12272032830E+02 0.12715698233E+02
 0.13277594720E+02 0.13767842095E+02 0.14038491729E+02 0.14034740886E+02 0.13784975311E+02
 0.13360635360E+02 0.12856262404E+02 0.12355514737E+02 0.11911776373E+02 0.11548077329E+02
 0.11268527312E+02 0.11070620892E+02 0.10952164469E+02 0.10912654421E+02 0.10952164469E+02
 0.11070620892E+02 0.11268527312E+02 0.11548077329E+02 0.11911776373E+02 0.12355514737E+02
 0.12856262404E+02 0.13360635360E+02 0.13784975311E+02 0.14034740886E+02 0.14038491729E+02
 0.13767842095E+02 0.13277594720E+02 0.12715698233E+02 0.12272032830E+02 0.12888234848E+02
 0.12974199507E+02 0.13197984426E+02 0.13473274489E+02 0.13701453934E+02 0.13814028027E+02
 0.13784975311E+02 0.13629018431E+02 0.13390799806E+02 0.13120822759E+02 0.12856262404E+02
 0.12615008104E+02 0.12401923350E+02 0.12219575747E+02 0.12075291033E+02 0.11981042872E+02
 0.11948096848E+02 0.11981042872E+02 0.12075291033E+02 0.12219575747E+02 0.12401923350E+02
 0.12615008104E+02 0.12856262404E+02 0.13120822759E+02 0.13390799806E+02 0.13629018431E+02
 0.13784975311E+02 0.13814028027E+02 0.13701453934E+02 0.13473274489E+02 0.13197984426E+02
 0.12974199507E+02 0.12718730246E+02 0.12762344746E+02 0.12878764531E+02 0.13032124384E+02
 0.13180617758E+02 0.13293426304E+02 0.13360635360E+02 0.13390799806E+02 0.13398564100E+02
 0.13390799806E+02 0.13360635360E+02 0.13293426304E+02 0.13180617758E+02 0.13032124384E+02
 0.12878764531E+02 0.12762344746E+02 0.12718730246E+02 0.12762344746E+02 0.12878764531E+02
 0.13032124384E+02 0.13180617758E+02 0.13293426304E+02 0.13360635360E+02 0.13390799806E+02
 0.13398564100E+02 0.13390799806E+02 0.13360635360E+02 0.13293426304E+02 0.13180617758E+02
 0.13032124384E+02 0.12878764531E+02 0.12762344746E+02 0.11948096848E+02 0.11981042872E+02
 0.12075291033E+02 0.12219575747E+02 0.12401923350E+02 0.12615008104E+02 0.12856262404E+02
 0.13120822759E+02 0.13390799806E+02 0.13629018431E+02 0.13784975311E+02 0.13814028027E+02
 0.13701453934E+02 0.13473274489E+02 0.13197984426E+02 0.12974199507E+02 0.12888234848E+02
 0.12974199507E+02 0.13197984426E+02 0.13473274489E+02 0.13701453934E+02 0.13814028027E+02
 0.13784975311E+02 0.13629018431E+02 0.13390799806E+02 0.13120822759E+02 0.12856262404E+02
 0.12615008104E+02 0.12401923350E+02 0.12219575747E+02 0.12075291033E+02 0.11981042872E+02
 0.10912654421E+02 0.10952164469E+02 0.11070620892E+02 0.11268527312E+02 0.11548077329E+02
 0.11911776373E+02 0.12355514737E+02 0.12856262404E+02 0.13360635360E+02 0.13784975311E+02
 0.14034740886E+02 0.14038491729E+02 0.13767842095E+02 0.13277594720E+02 0.12715698233E+02
 0.12272032830E+02 0.12103892729E+02 0.12272032830E+02 0.12715698233E+02 0.13277594720E+02
 0.13767842095E+02 0.14038491729E+02 0.14034740886E+02 0.13784975311E+02 0.13360635360E+02
 0.12856262404E+02 0.12355514737E+02 0.11911776373E+02 0.11548077329E+02 0.11268527312E+02
 0.11070620892E+02 0.10952164469E+02 0.98642721598E+01 0.99183061304E+01 0.10081614266E+02
 0.10358308371E+02 0.10755190779E+02 0.11276707180E+02 0.11911776373E+02 0.12615008104E+02
 0.13293426304E+02 0.13814028027E+02 0.14038491729E+02 0.13850007636E+02 0.13221119428E+02
 0.12279043209E+02 0.11279102525E+02 0.10519781913E+02 0.10236952109E+02 0.10519781913E+02
 0.11279102525E+02 0.12279043209E+02 0.13221119428E+02 0.13850007636E+02 0.14038491729E+02
 0.13814028027E+02 0.13293426304E+02 0.12615008104E+02 0.11911776373E+02 0.11276707180E+02
 0.10755190779E+02 0.10358308371E+02 0.10081614266E+02 0.99183061304E+01 0.89554408418E+01
 0.90250610742E+01 0.92349268970E+01 0.95891408492E+01 0.10094998847E+02 0.10755190779E+02
 0.11548077329E+02 0.12401923350E+02 0.13180617758E+02 0.13701453934E+02 0.13767842095E+02
 0.13221119428E+02 0.12075480475E+02 0.10555310336E+02 0.90352056377E+01 0.79186781235E+01
 0.75092024806E+01 0.79186781235E+01 0.90352056377E+01 0.10555310336E+02 0.12075480475E+02
 0.13221119428E+02 0.13767842095E+02 0.13701453934E+02 0.13180617758E+02 0.12401923350E+02
 0.11548077329E+02 0.10755190779E+02 0.10094998847E+02 0.95891408492E+01 0.92349268970E+01
 0.90250610742E+01 0.82461102918E+01 0.83288542284E+01 0.85775261795E+01 0.89953727289E+01
 0.95891408492E+01 0.10358308371E+02 0.11268527312E+02 0.12219575747E+02 0.13032124384E+02
 0.13473274489E+02 0.13277594720E+02 0.12279043209E+02 0.10555310336E+02 0.84386984701E+01
 0.64155158376E+01 0.49702829658E+01 0.44475056364E+01 0.49702829658E+01 0.64155158376E+01
 0.84386984701E+01 0.10555310336E+02 0.12279043209E+02 0.13277594720E+02 0.13473274489E+02
 0.13032124384E+02 0.12219575747E+02 0.11268527312E+02 0.10358308371E+02 0.95891408492E+01
 0.89953727289E+01 0.85775261795E+01 0.83288542284E+01 0.77441220118E+01 0.78364642164E+01
 0.81134283949E+01 0.85775261795E+01 0.92349268970E+01 0.10081614266E+02 0.11070620892E+02
 0.12075291033E+02 0.12878764531E+02 0.13197984426E+02 0.12715698233E+02 0.11279102525E+02
 0.90352056377E+01 0.64155158376E+01 0.39938762325E+01 0.23025891027E+01 0.16979552176E+01
 0.23025891027E+01 0.39938762325E+01 0.64155158376E+01 0.90352056377E+01 0.11279102525E+02
 0.12715698233E+02 0.13197984426E+02 0.12878764531E+02 0.12075291033E+02 0.11070620892E+02
 0.10081614266E+02 0.92349268970E+01 0.85775261795E+01 0.81134283949E+01 0.78364642164E+01
 0.74439272851E+01 0.75421633573E+01 0.78364642164E+01 0.83288542284E+01 0.90250610742E+01
 0.99183061304E+01 0.10952164469E+02 0.11981042872E+02 0.12762344746E+02 0.12974199507E+02
 0.12272032830E+02 0.10519781913E+02 0.79186781235E+01 0.49702829658E+01 0.23025891027E+01
 0.46793390741E+00 -.18250195397E+00 0.46793390741E+00 0.23025891027E+01 0.49702829658E+01
 0.79186781235E+01 0.10519781913E+02 0.12272032830E+02 0.12974199507E+02 0.12762344746E+02
 0.11981042872E+02 0.10952164469E+02 0.99183061304E+01 0.90250610742E+01 0.83288542284E+01
 0.78364642164E+01 0.75421633573E+01 0.73436839924E+01 0.74439272851E+01 0.77441220118E+01
 0.82461102918E+01 0.89554408418E+01 0.98642721598E+01 0.10912654421E+02 0.11948096848E+02
 0.12718730246E+02 0.12888234848E+02 0.12103892729E+02 0.10236952109E+02 0.75092024806E+01
 0.44475056364E+01 0.16979552176E+01 -.18250195397E+00 -.84712553194E+00 -.18250195397E+00
 0.16979552176E+01 0.44475056364E+01 0.75092024806E+01 0.10236952109E+02 0.12103892729E+02
 0.12888234848E+02 0.12718730246E+02 0.11948096848E+02 0.10912654421E+02 0.98642721598E+01
 0.89554408418E+01 0.82461102918E+01 0.77441220118E+01 0.74439272851E+01 0.74439272851E+01
 0.75421633573E+01 0.78364642164E+01 0.83288542284E+01 0.90250610742E+01 0.99183061304E+01
 0.10952164469E+02 0.11981042872E+02 0.12762344746E+02 0.12974199507E+02 0.12272032830E+02
 0.10519781913E+02 0.79186781235E+01 0.49702829658E+01 0.23025891027E+01 0.46793390741E+00
 -.18250195397E+00 0.46793390741E+00 0.23025891027E+01 0.49702829658E+01 0.79186781235E+01
 0.10519781913E+02 0.12272032830E+02 0.12974199507E+02 0.12762344746E+02 0.11981042872E+02
 0.10952164469E+02 0.99183061304E+01 0.90250610742E+01 0.83288542284E+01 0.78364642164E+01
 0.75421633573E+01 0.77441220118E+01 0.78364642164E+01 0.81134283949E+01 0.85775261795E+01
 0.92349268970E+01 0.10081614266E+02 0.11070620892E+02 0.12075291033E+02 0.12878764531E+02
 0.13197984426E+02 0.12715698233E+02 0.11279102525E+02 0.90352056377E+01 0.64155158376E+01
 0.39938762325E+01 0.23025891027E+01 0.16979552176E+01 0.23025891027E+01 0.39938762325E+01
 0.64155158376E+01 0.90352056377E+01 0.11279102525E+02 0.12715698233E+02 0.13197984426E+02
 0.12878764531E+02 0.12075291033E+02 0.11070620892E+02 0.10081614266E+02 0.92349268970E+01
 0.85775261795E+01 0.81134283949E+01 0.78364642164E+01 0.82461102918E+01 0.83288542284E+01
 0.85775261795E+01 0.89953727289E+01 0.95891408492E+01 0.10358308371E+02 0.11268527312E+02
 0.12219575747E+02 0.13032124384E+02 0.13473274489E+02 0.13277594720E+02 0.12279043209E+02
 0.10555310336E+02 0.84386984701E+01 0.64155158376E+01 0.49702829658E+01 0.44475056364E+01
 0.49702829658E+01 0.64155158376E+01 0.84386984701E+01 0.10555310336E+02 0.12279043209E+02
 0.13277594720E+02 0.13473274489E+02 0.13032124384E+02 0.12219575747E+02 0.11268527312E+02
 0.10358308371E+02 0.95891408492E+01 0.89953727289E+01 0.85775261795E+01 0.83288542284E+01
 0.89554408418E+01 0.90250610742E+01 0.92349268970E+01 0.95891408492E+01 0.10094998847E+02
 0.10755190779E+02 0.11548077329E+02 0.12401923350E+02 0.13180617758E+02 0.13701453934E+02
 0.13767842095E+02 0.13221119428E+02 0.12075480475E+02 0.10555310336E+02 0.90352056377E+01
 0.79186781235E+01 0.75092024806E+01 0.79186781235E+01 0.90352056377E+01 0.10555310336E+02
 0.12075480475E+02 0.13221119428E+02 0.13767842095E+02 0.13701453934E+02 0.13180617758E+02
 0.12401923350E+02 0.11548077329E+02 0.10755190779E+02 0.10094998847E+02 0.95891408492E+01
 0.92349268970E+01 0.90250610742E+01 0.98642721598E+01 0.99183061304E+01 0.10081614266E+02
 0.10358308371E+02 0.10755190779E+02 0.11276707180E+02 0.11911776373E+02 0.12615008104E+02
 0.13293426304E+02 0.13814028027E+02 0.14038491729E+02 0.13850007636E+02 0.13221119428E+02
 0.12279043209E+02 0.11279102525E+02 0.10519781913E+02 0.10236952109E+02 0.10519781913E+02
 0.11279102525E+02 0.12279043209E+02 0.13221119428E+02 0.13850007636E+02 0.14038491729E+02
 0.13814028027E+02 0.13293426304E+02 0.12615008104E+02 0.11911776373E+02 0.11276707180E+02
 0.10755190779E+02 0.10358308371E+02 0.10081614266E+02 0.99183061304E+01 0.10912654421E+02
 0.10952164469E+02 0.11070620892E+02 0.11268527312E+02 0.11548077329E+02 0.11911776373E+02
 0.12355514737E+02 0.12856262404E+02 0.13360635360E+02 0.13784975311E+02 0.14034740886E+02
 0.14038491729E+02 0.13767842095E+02 0.13277594720E+02 0.12715698233E+02 0.12272032830E+02
 0.12103892729E+02 0.12272032830E+02 0.12715698233E+02 0.13277594720E+02 0.13767842095E+02
 0.14038491729E+02 0.14034740886E+02 0.13784975311E+02 0.13360635360E+02 0.12856262404E+02
 0.12355514737E+02 0.11911776373E+02 0.11548077329E+02 0.11268527312E+02 0.11070620892E+02
 0.10952164469E+02 0.11948096848E+02 0.11981042872E+02 0.12075291033E+02 0.12219575747E+02
 0.12401923350E+02 0.12615008104E+02 0.12856262404E+02 0.13120822759E+02 0.13390799806E+02
 0.13629018431E+02 0.13784975311E+02 0.13814028027E+02 0.13701453934E+02 0.13473274489E+02
 0.13197984426E+02 0.12974199507E+02 0.12888234848E+02 0.12974199507E+02 0.13197984426E+02
 0.13473274489E+02 0.13701453934E+02 0.13814028027E+02 0.13784975311E+02 0.13629018431E+02
 0.13390799806E+02 0.13120822759E+02 0.12856262404E+02 0.12615008104E+02 0.12401923350E+02
 0.12219575747E+02 0.12075291033E+02 0.11981042872E+02 0.12718730246E+02 0.12762344746E+02
 0.12878764531E+02 0.13032124384E+02 0.13180617758E+02 0.13293426304E+02 0.13360635360E+02
 0.13390799806E+02 0.13398564100E+02 0.13390799806E+02 0.13360635360E+02 0.13293426304E+02
 0.13180617758E+02 0.13032124384E+02 0.12878764531E+02 0.12762344746E+02 0.12718730246E+02
 0.12762344746E+02 0.12878764531E+02 0.13032124384E+02 0.13180617758E+02 0.13293426304E+02
 0.13360635360E+02 0.13390799806E+02 0.13398564100E+02 0.13390799806E+02 0.13360635360E+02
 0.13293426304E+02 0.13180617758E+02 0.13032124384E+02 0.12878764531E+02 0.12762344746E+02
 0.12888234848E+02 0.12974199507E+02 0.13197984426E+02 0.13473274489E+02 0.13701453934E+02
 0.13814028027E+02 0.13784975311E+02 0.13629018431E+02 0.13390799806E+02 0.13120822759E+02
 0.12856262404E+02 0.12615008104E+02 0.12401923350E+02 0.12219575747E+02 0.12075291033E+02
 0.11981042872E+02 0.11948096848E+02 0.11981042872E+02 0.12075291033E+02 0.12219575747E+02
 0.12401923350E+02 0.12615008104E+02 0.12856262404E+02 0.13120822759E+02 0.13390799806E+02
 0.13629018431E+02 0.13784975311E+02 0.13814028027E+02 0.13701453934E+02 0.13473274489E+02
 0.13197984426E+02 0.12974199507E+02 0.12103892729E+02 0.12272032830E+02 0.12715698233E+02
 0.13277594720E+02 0.13767842095E+02 0.14038491729E+02 0.14034740886E+02 0.13784975311E+02
 0.13360635360E+02 0.12856262404E+02 0.12355514737E+02 0.11911776373E+02 0.11548077329E+02
 0.11268527312E+02 0.11070620892E+02 0.10952164469E+02 0.10912654421E+02 0.10952164469E+02
 0.11070620892E+02 0.11268527312E+02 0.11548077329E+02 0.11911776373E+02 0.12355514737E+02
 0.12856262404E+02 0.13360635360E+02 0.13784975311E+02 0.14034740886E+02 0.14038491729E+02
 0.13767842095E+02 0.13277594720E+02 0.12715698233E+02 0.12272032830E+02 0.10236952109E+02
 0.10519781913E+02 0.11279102525E+02 0.12279043209E+02 0.13221119428E+02 0.13850007636E+02
 0.14038491729E+02 0.13814028027E+02 0.13293426304E+02 0.12615008104E+02 0.11911776373E+02
 0.11276707180E+02 0.10755190779E+02 0.10358308371E+02 0.10081614266E+02 0.99183061304E+01
 0.98642721598E+01 0.99183061304E+01 0.10081614266E+02 0.10358308371E+02 0.10755190779E+02
 0.11276707180E+02 0.11911776373E+02 0.12615008104E+02 0.13293426304E+02 0.13814028027E+02
 0.14038491729E+02 0.13850007636E+02 0.13221119428E+02 0.12279043209E+02 0.11279102525E+02
 0.10519781913E+02 0.75092024806E+01 0.79186781235E+01 0.90352056377E+01 0.10555310336E+02
 0.12075480475E+02 0.13221119428E+02 0.13767842095E+02 0.13701453934E+02 0.13180617758E+02
 0.12401923350E+02 0.11548077329E+02 0.10755190779E+02 0.10094998847E+02 0.95891408492E+01
 0.92349268970E+01 0.90250610742E+01 0.89554408418E+01 0.90250610742E+01 0.92349268970E+01
 0.95891408492E+01 0.10094998847E+02 0.10755190779E+02 0.11548077329E+02 0.12401923350E+02
 0.13180617758E+02 0.13701453934E+02 0.13767842095E+02 0.13221119428E+02 0.12075480475E+02
 0.10555310336E+02 0.90352056377E+01 0.79186781235E+01 0.44475056364E+01 0.49702829658E+01
 0.64155158376E+01 0.84386984701E+01 0.10555310336E+02 0.12279043209E+02 0.13277594720E+02
 0.13473274489E+02 0.13032124384E+02 0.12219575747E+02 0.11268527312E+02 0.10358308371E+02
 0.95891408492E+01 0.89953727289E+01 0.85775261795E+01 0.83288542284E+01 0.82461102918E+01
 0.83288542284E+01 0.85775261795E+01 0.89953727289E+01 0.95891408492E+01 0.10358308371E+02
 0.11268527312E+02 0.12219575747E+02 0.13032124384E+02 0.13473274489E+02 0.13277594720E+02
 0.12279043209E+02 0.10555310336E+02 0.84386984701E+01 0.64155158376E+01 0.49702829658E+01
 0.16979552176E+01 0.23025891027E+01 0.39938762325E+01 0.64155158376E+01 0.90352056377E+01
 0.11279102525E+02 0.12715698233E+02 0.13197984426E+02 0.12878764531E+02 0.12075291033E+02
 0.11070620892E+02 0.10081614266E+02 0.92349268970E+01 0.85775261795E+01 0.81134283949E+01
 0.78364642164E+01 0.77441220118E+01 0.78364642164E+01 0.81134283949E+01 0.85775261795E+01
 0.92349268970E+01 0.10081614266E+02 0.11070620892E+02 0.12075291033E+02 0.12878764531E+02
 0.13197984426E+02 0.12715698233E+02 0.11279102525E+02 0.90352056377E+01 0.64155158376E+01
 0.39938762325E+01 0.23025891027E+01 -.18250195397E+00 0.46793390741E+00 0.23025891027E+01
 0.49702829658E+01 0.79186781235E+01 0.10519781913E+02 0.12272032830E+02 0.12974199507E+02
 0.12762344746E+02 0.11981042872E+02 0.10952164469E+02 0.99183061304E+01 0.90250610742E+01
 0.83288542284E+01 0.78364642164E+01 0.75421633573E+01 0.74439272851E+01 0.75421633573E+01
 0.78364642164E+01 0.83288542284E+01 0.90250610742E+01 0.99183061304E+01 0.10952164469E+02
 0.11981042872E+02 0.12762344746E+02 0.12974199507E+02 0.12272032830E+02 0.10519781913E+02
 0.79186781235E+01 0.49702829658E+01 0.23025891027E+01 0.46793390741E+00 -.18250195397E+00
 0.46793390741E+00 0.23025891027E+01 0.49702829658E+01 0.79186781235E+01 0.10519781913E+02
 0.12272032830E+02 0.12974199507E+02 0.12762344746E+02 0.11981042872E+02 0.10952164469E+02
 0.99183061304E+01 0.90250610742E+01 0.83288542284E+01 0.78364642164E+01 0.75421633573E+01
 0.74439272851E+01 0.75421633573E+01 0.78364642164E+01 0.83288542284E+01 0.90250610742E+01
 0.99183061304E+01 0.10952164469E+02 0.11981042872E+02 0.12762344746E+02 0.12974199507E+02
 0.12272032830E+02 0.10519781913E+02 0.79186781235E+01 0.49702829658E+01 0.23025891027E+01
 0.46793390741E+00 0.46793390741E+00 0.11034249155E+01 0.28906811154E+01 0.54755665911E+01
 0.83115208014E+01 0.10788741442E+02 0.12430090899E+02 0.13053738728E+02 0.12802246824E+02
 0.12011567619E+02 0.10989813721E+02 0.99706093969E+01 0.90928901383E+01 0.84097142054E+01
 0.79268539640E+01 0.76384063161E+01 0.75421633573E+01 0.76384063161E+01 0.79268539640E+01
 0.84097142054E+01 0.90928901383E+01 0.99706093969E+01 0.10989813721E+02 0.12011567619E+02
 0.12802246824E+02 0.13053738728E+02 0.12430090899E+02 0.10788741442E+02 0.83115208014E+01
 0.54755665911E+01 0.28906811154E+01 0.11034249155E+01 0.23025891027E+01 0.28906811154E+01
 0.45314434986E+01 0.68692536496E+01 0.93803384997E+01 0.11509021648E+02 0.12845757467E+02
 0.13259839106E+02 0.12908451212E+02 0.12098966395E+02 0.11102905391E+02 0.10128859004E+02
 0.92974968066E+01 0.86528513403E+01 0.81980829595E+01 0.79268539640E+01 0.78364642164E+01
 0.79268539640E+01 0.81980829595E+01 0.86528513403E+01 0.92974968066E+01 0.10128859004E+02
 0.11102905391E+02 0.12098966395E+02 0.12908451212E+02 0.13259839106E+02 0.12845757467E+02
 0.11509021648E+02 0.93803384997E+01 0.68692536496E+01 0.45314434986E+01 0.28906811154E+01
 0.49702829658E+01 0.54755665911E+01 0.68692536496E+01 0.88114164464E+01 0.10828699960E+02
 0.12452195418E+02 0.13367959713E+02 0.13510475441E+02 0.13047153493E+02 0.12233057298E+02
 0.11292475233E+02 0.10397453000E+02 0.96431959743E+01 0.90617084154E+01 0.86528513403E+01
 0.84097142054E+01 0.83288542284E+01 0.84097142054E+01 0.86528513403E+01 0.90617084154E+01
 0.96431959743E+01 0.10397453000E+02 0.11292475233E+02 0.12233057298E+02 0.13047153493E+02
 0.13510475441E+02 0.13367959713E+02 0.12452195418E+02 0.10828699960E+02 0.88114164464E+01
 0.68692536496E+01 0.54755665911E+01 0.79186781235E+01 0.83115208014E+01 0.93803384997E+01
 0.10828699960E+02 0.12265288755E+02 0.13330947283E+02 0.13815479841E+02 0.13712714665E+02
 0.13179147406E+02 0.12403257977E+02 0.11561341207E+02 0.10783474829E+02 0.10137461403E+02
 0.96431959743E+01 0.92974968066E+01 0.90928901383E+01 0.90250610742E+01 0.90928901383E+01
 0.92974968066E+01 0.96431959743E+01 0.10137461403E+02 0.10783474829E+02 0.11561341207E+02
 0.12403257977E+02 0.13179147406E+02 0.13712714665E+02 0.13815479841E+02 0.13330947283E+02
 0.12265288755E+02 0.10828699960E+02 0.93803384997E+01 0.83115208014E+01 0.10519781913E+02
 0.10788741442E+02 0.11509021648E+02 0.12452195418E+02 0.13330947283E+02 0.13902325134E+02
 0.14049139989E+02 0.13802878421E+02 0.13276309571E+02 0.12603644750E+02 0.11912704523E+02
 0.11291822201E+02 0.10783474829E+02 0.10397453000E+02 0.10128859004E+02 0.99706093969E+01
 0.99183061304E+01 0.99706093969E+01 0.10128859004E+02 0.10397453000E+02 0.10783474829E+02
 0.11291822201E+02 0.11912704523E+02 0.12603644750E+02 0.13276309571E+02 0.13802878421E+02
 0.14049139989E+02 0.13902325134E+02 0.13330947283E+02 0.12452195418E+02 0.11509021648E+02
 0.10788741442E+02 0.12272032830E+02 0.12430090899E+02 0.12845757467E+02 0.13367959713E+02
 0.13815479841E+02 0.14049139989E+02 0.14020207943E+02 0.13757261420E+02 0.13330920574E+02
 0.12833037990E+02 0.12343581967E+02 0.11912704523E+02 0.11561341207E+02 0.11292475233E+02
 0.11102905391E+02 0.10989813721E+02 0.10952164469E+02 0.10989813721E+02 0.11102905391E+02
 0.11292475233E+02 0.11561341207E+02 0.11912704523E+02 0.12343581967E+02 0.12833037990E+02
 0.13330920574E+02 0.13757261420E+02 0.14020207943E+02 0.14049139989E+02 0.13815479841E+02
 0.13367959713E+02 0.12845757467E+02 0.12430090899E+02 0.12974199507E+02 0.13053738728E+02
 0.13259839106E+02 0.13510475441E+02 0.13712714665E+02 0.13802878421E+02 0.13757261420E+02
 0.13592415382E+02 0.13353007222E+02 0.13088152776E+02 0.12833037990E+02 0.12603644750E+02
 0.12403257977E+02 0.12233057298E+02 0.12098966395E+02 0.12011567619E+02 0.11981042872E+02
 0.12011567619E+02 0.12098966395E+02 0.12233057298E+02 0.12403257977E+02 0.12603644750E+02
 0.12833037990E+02 0.13088152776E+02 0.13353007222E+02 0.13592415382E+02 0.13757261420E+02
 0.13802878421E+02 0.13712714665E+02 0.13510475441E+02 0.13259839106E+02 0.13053738728E+02
 0.12762344746E+02 0.12802246824E+02 0.12908451212E+02 0.13047153493E+02 0.13179147406E+02
 0.13276309571E+02 0.13330920574E+02 0.13353007222E+02 0.13357999474E+02 0.13353007222E+02
 0.13330920574E+02 0.13276309571E+02 0.13179147406E+02 0.13047153493E+02 0.12908451212E+02
 0.12802246824E+02 0.12762344746E+02 0.12802246824E+02 0.12908451212E+02 0.13047153493E+02
 0.13179147406E+02 0.13276309571E+02 0.13330920574E+02 0.13353007222E+02 0.13357999474E+02
 0.13353007222E+02 0.13330920574E+02 0.13276309571E+02 0.13179147406E+02 0.13047153493E+02
 0.12908451212E+02 0.12802246824E+02 0.11981042872E+02 0.12011567619E+02 0.12098966395E+02
 0.12233057298E+02 0.12403257977E+02 0.12603644750E+02 0.12833037990E+02 0.13088152776E+02
 0.13353007222E+02 0.13592415382E+02 0.13757261420E+02 0.13802878421E+02 0.13712714665E+02
 0.13510475441E+02 0.13259839106E+02 0.13053738728E+02 0.12974199507E+02 0.13053738728E+02
 0.13259839106E+02 0.13510475441E+02 0.13712714665E+02 0.13802878421E+02 0.13757261420E+02
 0.13592415382E+02 0.13353007222E+02 0.13088152776E+02 0.12833037990E+02 0.12603644750E+02
 0.12403257977E+02 0.12233057298E+02 0.12098966395E+02 0.12011567619E+02 0.10952164469E+02
 0.10989813721E+02 0.11102905391E+02 0.11292475233E+02 0.11561341207E+02 0.11912704523E+02
 0.12343581967E+02 0.12833037990E+02 0.13330920574E+02 0.13757261420E+02 0.14020207943E+02
 0.14049139989E+02 0.13815479841E+02 0.13367959713E+02 0.12845757467E+02 0.12430090899E+02
 0.12272032830E+02 0.12430090899E+02 0.12845757467E+02 0.13367959713E+02 0.13815479841E+02
 0.14049139989E+02 0.14020207943E+02 0.13757261420E+02 0.13330920574E+02 0.12833037990E+02
 0.12343581967E+02 0.11912704523E+02 0.11561341207E+02 0.11292475233E+02 0.11102905391E+02
 0.10989813721E+02 0.99183061304E+01 0.99706093969E+01 0.10128859004E+02 0.10397453000E+02
 0.10783474829E+02 0.11291822201E+02 0.11912704523E+02 0.12603644750E+02 0.13276309571E+02
 0.13802878421E+02 0.14049139989E+02 0.13902325134E+02 0.13330947283E+02 0.12452195418E+02
 0.11509021648E+02 0.10788741442E+02 0.10519781913E+02 0.10788741442E+02 0.11509021648E+02
 0.12452195418E+02 0.13330947283E+02 0.13902325134E+02 0.14049139989E+02 0.13802878421E+02
 0.13276309571E+02 0.12603644750E+02 0.11912704523E+02 0.11291822201E+02 0.10783474829E+02
 0.10397453000E+02 0.10128859004E+02 0.99706093969E+01 0.90250610742E+01 0.90928901383E+01
 0.92974968066E+01 0.96431959743E+01 0.10137461403E+02 0.10783474829E+02 0.11561341207E+02
 0.12403257977E+02 0.13179147406E+02 0.13712714665E+02 0.13815479841E+02 0.13330947283E+02
 0.12265288755E+02 0.10828699960E+02 0.93803384997E+01 0.83115208014E+01 0.79186781235E+01
 0.83115208014E+01 0.93803384997E+01 0.10828699960E+02 0.12265288755E+02 0.13330947283E+02
 0.13815479841E+02 0.13712714665E+02 0.13179147406E+02 0.12403257977E+02 0.11561341207E+02
 0.10783474829E+02 0.10137461403E+02 0.96431959743E+01 0.92974968066E+01 0.90928901383E+01
 0.83288542284E+01 0.84097142054E+01 0.86528513403E+01 0.90617084154E+01 0.96431959743E+01
 0.10397453000E+02 0.11292475233E+02 0.12233057298E+02 0.13047153493E+02 0.13510475441E+02
 0.13367959713E+02 0.12452195418E+02 0.10828699960E+02 0.88114164464E+01 0.68692536496E+01
 0.54755665911E+01 0.49702829658E+01 0.54755665911E+01 0.68692536496E+01 0.88114164464E+01
 0.10828699960E+02 0.12452195418E+02 0.13367959713E+02 0.13510475441E+02 0.13047153493E+02
 0.12233057298E+02 0.11292475233E+02 0.10397453000E+02 0.96431959743E+01 0.90617084154E+01
 0.86528513403E+01 0.84097142054E+01 0.78364642164E+01 0.79268539640E+01 0.81980829595E+01
 0.86528513403E+01 0.92974968066E+01 0.10128859004E+02 0.11102905391E+02 0.12098966395E+02
 0.12908451212E+02 0.13259839106E+02 0.12845757467E+02 0.11509021648E+02 0.93803384997E+01
 0.68692536496E+01 0.45314434986E+01 0.28906811154E+01 0.23025891027E+01 0.28906811154E+01
 0.45314434986E+01 0.68692536496E+01 0.93803384997E+01 0.11509021648E+02 0.12845757467E+02
 0.13259839106E+02 0.12908451212E+02 0.12098966395E+02 0.11102905391E+02 0.10128859004E+02
 0.92974968066E+01 0.86528513403E+01 0.81980829595E+01 0.79268539640E+01 0.75421633573E+01
 0.76384063161E+01 0.79268539640E+01 0.84097142054E+01 0.90928901383E+01 0.99706093969E+01
 0.10989813721E+02 0.12011567619E+02 0.12802246824E+02 0.13053738728E+02 0.12430090899E+02
 0.10788741442E+02 0.83115208014E+01 0.54755665911E+01 0.28906811154E+01 0.11034249155E+01
 0.46793390741E+00 0.11034249155E+01 0.28906811154E+01 0.54755665911E+01 0.83115208014E+01
 0.10788741442E+02 0.12430090899E+02 0.13053738728E+02 0.12802246824E+02 0.12011567619E+02
 0.10989813721E+02 0.99706093969E+01 0.90928901383E+01 0.84097142054E+01 0.79268539640E+01
 0.76384063161E+01 0.74439272851E+01 0.75421633573E+01 0.78364642164E+01 0.83288542284E+01
 0.90250610742E+01 0.99183061304E+01 0.10952164469E+02 0.11981042872E+02 0.12762344746E+02
 0.12974199507E+02 0.12272032830E+02 0.10519781913E+02 0.79186781235E+01 0.49702829658E+01
 0.23025891027E+01 0.46793390741E+00 -.18250195397E+00 0.46793390741E+00 0.23025891027E+01
 0.49702829658E+01 0.79186781235E+01 0.10519781913E+02 0.12272032830E+02 0.12974199507E+02
 0.12762344746E+02 0.11981042872E+02 0.10952164469E+02 0.99183061304E+01 0.90250610742E+01
 0.83288542284E+01 0.78364642164E+01 0.75421633573E+01 0.75421633573E+01 0.76384063161E+01
 0.79268539640E+01 0.84097142054E+01 0.90928901383E+01 0.99706093969E+01 0.10989813721E+02
 0.12011567619E+02 0.12802246824E+02 0.13053738728E+02 0.12430090899E+02 0.10788741442E+02
 0.83115208014E+01 0.54755665911E+01 0.28906811154E+01 0.11034249155E+01 0.46793390741E+00
 0.11034249155E+01 0.28906811154E+01 0.54755665911E+01 0.83115208014E+01 0.10788741442E+02
 0.12430090899E+02 0.13053738728E+02 0.12802246824E+02 0.12011567619E+02 0.10989813721E+02
 0.99706093969E+01 0.90928901383E+01 0.84097142054E+01 0.79268539640E+01 0.76384063161E+01
 0.78364642164E+01 0.79268539640E+01 0.81980829595E+01 0.86528513403E+01 0.92974968066E+01
 0.10128859004E+02 0.11102905391E+02 0.12098966395E+02 0.12908451212E+02 0.13259839106E+02
 0.12845757467E+02 0.11509021648E+02 0.93803384997E+01 0.68692536496E+01 0.45314434986E+01
 0.28906811154E+01 0.23025891027E+01 0.28906811154E+01 0.45314434986E+01 0.68692536496E+01
 0.93803384997E+01 0.11509021648E+02 0.12845757467E+02 0.13259839106E+02 0.12908451212E+02