    4    4   50    1
  0.1660753E+02  0.4050000E-09  0.4050000E-09  0.4050000E-09  0.5000000E-15
  1.000000000000000E-004
  CAR 
 bcc Al                                  
   12   35   10
 
  0.5000000E-01  0.5000000E-01  0.5000000E-01  0.8000000E-02
   1       -3.100203
   2        4.654591
   3        4.654591
   4        4.654591
   5        6.839767
   6        6.839767
   7        6.839767
   8       12.097089
   9       12.097089
  10       12.097089
 
  0.1500000E+00  0.5000000E-01  0.5000000E-01  0.2400000E-01
   1       -2.919738
   2        3.234303
   3        4.823471
   4        4.823471
   5        7.011815
   6        7.011815
   7        8.575970
   8       10.686515
   9       10.686515
  10       12.264716
 
  0.2500000E+00  0.5000000E-01  0.5000000E-01  0.2400000E-01
   1       -2.559226
   2        1.865425
   3        5.160325
   4        5.160325
   5        7.349613
   6        7.349613
   7        9.370414
   8        9.370414
   9       10.571144
  10       11.602674
 
  0.3500000E+00  0.5000000E-01  0.5000000E-01  0.2400000E-01
   1       -2.020055
   2        0.643139
   3        5.664411
   4        5.664411
   5        7.806666
   6        7.806666
   7        8.249393
   8        8.249393
   9       10.501419
  10       10.501419
 
  0.4500000E+00  0.5000000E-01  0.5000000E-01  0.2400000E-01
   1       -1.304507
   2       -0.415401
   3        6.331221
   4        6.331221
   5        7.172748
   6        7.172748
   7        8.491116
   8        8.491116
   9        9.584682
  10        9.584682
 
  0.1500000E+00  0.1500000E+00  0.5000000E-01  0.2400000E-01
   1       -2.739403
   2        3.406527
   3        3.406527
   4        4.991893
   5        7.178312
   6        8.740195
   7        8.740195
   8        9.344258
   9       10.855701
  10       10.855701
 
  0.2500000E+00  0.1500000E+00  0.5000000E-01  0.4800000E-01
   1       -2.379232
   2        2.039606
   3        3.750655
   4        5.327968
   5        7.463739
   6        8.091077
   7        9.041631
   8        9.562795
   9       10.707036
  10       11.211390
 
  0.3500000E+00  0.1500000E+00  0.5000000E-01  0.4800000E-01
   1       -1.840731
   2        0.819236
   3        4.264991
   4        5.827816
   5        6.803611
   6        8.095606
   7        8.344762
   8        9.550224
   9       10.709601
  10       11.670927
 
  0.4500000E+00  0.1500000E+00  0.5000000E-01  0.4800000E-01
   1       -1.126111
   2       -0.238180
   3        4.947154
   4        5.786670
   5        6.519295
   6        7.349242
   7        8.746770
   8        9.509125
   9       10.422119
  10       11.169908
 
  0.2500000E+00  0.2500000E+00  0.5000000E-01  0.2400000E-01
   1       -2.019987
   2        2.387652
   3        2.387652
   4        5.659927
   5        6.652458
   6        7.933314
   7        9.848012
   8        9.848012
   9       11.042499
  10       11.042499
 
  0.3500000E+00  0.2500000E+00  0.5000000E-01  0.4800000E-01
   1       -1.482995
   2        1.170458
   3        2.908364
   4        5.468723
   5        6.185437
   6        8.427975
   7        8.688333
   8       10.357142
   9       10.850167
  10       11.710818
 
  0.4500000E+00  0.2500000E+00  0.5000000E-01  0.4800000E-01
   1       -0.770099
   2        0.115603
   3        3.599585
   4        4.456991
   5        6.849275
   6        7.686311
   7        9.101318
   8        9.928913
   9       11.026640
  10       11.859900
 
  0.3500000E+00  0.3500000E+00  0.5000000E-01  0.2400000E-01
   1       -0.947958
   2        1.695702
   3        1.695702
   4        4.290228
   5        6.681922
   6        8.938389
   7        9.192696
   8        9.192696
   9       11.422470
  10       11.422470
 
  0.4500000E+00  0.3500000E+00  0.5000000E-01  0.4800000E-01
   1       -0.237788
   2        0.644946
   3        2.393536
   4        3.260079
   5        7.352381
   6        8.190036
   7        9.614654
   8        9.862811
   9       10.447916
  10       10.698187
 
  0.4500000E+00  0.4500000E+00  0.5000000E-01  0.2400000E-01
   1        0.468924
   2        1.347602
   3        1.347602
   4        2.220908
   5        8.023423
   6        8.860609
   7        8.860609
   8        9.697072
   9       10.289409
  10       11.119949
 
  0.1500000E+00  0.1500000E+00  0.1500000E+00  0.8000000E-02
   1       -2.559173
   2        3.578363
   3        3.578363
   4        3.578363
   5        8.871872
   6        8.871872
   7        8.871872
   8        9.545878
   9        9.545878
  10        9.545878
 
  0.2500000E+00  0.1500000E+00  0.1500000E+00  0.2400000E-01
   1       -2.199557
   2        2.213581
   3        3.922038
   4        3.922038
   5        8.146195
   6        8.146195
   7        9.295986
   8        9.295986
   9        9.801050
  10       10.940338
 
  0.3500000E+00  0.1500000E+00  0.1500000E+00  0.2400000E-01
   1       -1.661788
   2        0.995139
   3        4.435164
   4        4.435164
   5        6.992590
   6        6.992590
   7        9.775690
   8        9.775690
   9       10.319492
  10       12.294732
 
  0.4500000E+00  0.1500000E+00  0.1500000E+00  0.2400000E-01
   1       -0.947994
   2       -0.061178
   3        5.108292
   4        5.108292
   5        5.991267
   6        5.991267
   7       10.392222
   8       10.392222
   9       10.990425
  10       11.376635
 
  0.2500000E+00  0.2500000E+00  0.1500000E+00  0.2400000E-01
   1       -1.840773
   2        2.561213
   3        2.561213
   4        4.264018
   5        6.843558
   6        8.502041
   7        8.502041
   8        9.621154
   9       11.256102
  10       11.256102
 
  0.3500000E+00  0.2500000E+00  0.1500000E+00  0.4800000E-01
   1       -1.304424
   2        1.345947
   3        3.081308
   4        4.768266
   5        5.675553
   6        7.334131
   7        9.011038
   8       10.121021
   9       11.517224
  10       11.710894
 
  0.4500000E+00  0.2500000E+00  0.1500000E+00  0.4800000E-01
   1       -0.592444
   2        0.292211
   3        3.770868
   4        4.619379
   5        5.483926
   6        6.323106
   7        9.684159
   8       10.520412
   9       10.779254
  10       11.561185
 
  0.3500000E+00  0.3500000E+00  0.1500000E+00  0.2400000E-01
   1       -0.770052
   2        1.870570
   3        1.870570
   4        4.453068
   5        5.313659
   6        7.842576
   7        7.842576
   8       10.359999
   9       10.625634
  10       13.035855
 
  0.4500000E+00  0.3500000E+00  0.1500000E+00  0.4800000E-01
   1       -0.060771
   2        0.820917
   3        2.567376
   4        3.432243
   5        5.984934
   6        6.831630
   7        8.517878
   8        9.357950
   9       11.289051
  10       12.103864
 
  0.4500000E+00  0.4500000E+00  0.1500000E+00  0.2400000E-01
   1        0.645123
   2        1.522747
   3        1.522747
   4        2.394944
   5        6.663183
   6        7.508731
   7        7.508731
   8        8.352022
   9       11.952413
  10       12.768312
 
  0.2500000E+00  0.2500000E+00  0.2500000E+00  0.8000000E-02
   1       -1.483108
   2        2.907713
   3        2.907713
   4        2.907713
   5        7.185729
   6        7.185729
   7        7.185729
   8       11.372812
   9       11.593038
  10       11.593038
 
  0.3500000E+00  0.2500000E+00  0.2500000E+00  0.2400000E-01
   1       -0.947949
   2        1.695944
   3        3.426309
   4        3.426309
   5        6.008509
   6        6.008509
   7        7.695240
   8       10.215436
   9       12.084173
  10       12.084173
 
  0.4500000E+00  0.2500000E+00  0.2500000E+00  0.2400000E-01
   1       -0.237753
   2        0.644756
   3        4.107168
   4        4.107168
   5        4.995613
   6        4.995613
   7        8.371512
   8        9.212872
   9       12.704711
  10       12.704711
 
  0.3500000E+00  0.3500000E+00  0.2500000E+00  0.2400000E-01
   1       -0.414887
   2        2.219268
   3        2.219268
   4        3.935920
   5        4.828972
   6        6.518429
   7        6.518429
   8        9.051514
   9       12.583777
  10       14.190700
 
  0.4500000E+00  0.3500000E+00  0.2500000E+00  0.4800000E-01
   1        0.292704
   2        1.172223
   3        2.913877
   4        3.770334
   5        4.652345
   6        5.499839
   7        7.197733
   8        8.043423
   9       13.231639
  10       14.004039
 
  0.4500000E+00  0.4500000E+00  0.2500000E+00  0.2400000E-01
   1        0.996909
   2        1.872370
   3        1.872370
   4        2.741982
   5        5.329576
   6        6.181220
   7        6.181220
   8        7.030544
   9       13.883347
  10       14.670772
 
  0.3500000E+00  0.3500000E+00  0.3500000E+00  0.8000000E-02
   1        0.116238
   2        2.740874
   3        2.740874
   4        2.740874
   5        5.334525
   6        5.334525
   7        5.334525
   8        7.881110
   9       14.693867
  10       14.693867
 
  0.4500000E+00  0.3500000E+00  0.3500000E+00  0.2400000E-01
   1        0.821289
   2        1.697795
   3        3.427318
   4        3.427318
   5        4.314215
   6        4.314215
   7        6.016687
   8        6.866897
   9       15.305673
  10       15.305673
 
  0.4500000E+00  0.4500000E+00  0.3500000E+00  0.2400000E-01
   1        1.522961
   2        2.395348
   3        2.395348
   4        3.257093
   5        4.142037
   6        4.994041
   7        4.994041
   8        5.847683
   9       15.942030
  10       16.647569
 
  0.4500000E+00  0.4500000E+00  0.4500000E+00  0.8000000E-02
   1        2.220973
   2        3.084991
   3        3.084991
   4        3.084991
   5        3.970217
   6        3.970217
   7        3.970217
   8        4.823550
   9       18.017651
  10       18.017668
