       N       E                     dE             d eps       ncg     rms          rms(c)
DAV:   1    -0.728144963234E+00   -0.72814E+00   -0.26692E+03   700   0.474E+02
DAV:   2    -0.144288349830E+02   -0.13701E+02   -0.12781E+02   966   0.687E+01
DAV:   3    -0.148339188783E+02   -0.40508E+00   -0.39898E+00   908   0.988E+00
DAV:   4    -0.148360194642E+02   -0.21006E-02   -0.20969E-02   872   0.789E-01
DAV:   5    -0.148360274113E+02   -0.79471E-05   -0.79477E-05   844   0.441E-02    0.181E+00
DAV:   6    -0.147893553098E+02    0.46672E-01   -0.60936E-03   798   0.532E-01    0.113E+00
DAV:   7    -0.147585114661E+02    0.30844E-01   -0.16944E-02   742   0.967E-01    0.531E-02
DAV:   8    -0.147585474260E+02   -0.35960E-04   -0.12884E-04   910   0.995E-02    0.131E-02
DAV:   9    -0.147585527375E+02   -0.53115E-05   -0.78493E-07   654   0.712E-03    0.178E-03
DAV:  10    -0.147585517077E+02    0.10299E-05   -0.66524E-08   442   0.244E-03    0.382E-04
DAV:  11    -0.147585515920E+02    0.11565E-06   -0.62340E-09   398   0.602E-04
   1 F= -.14758552E+02 E0= -.14758214E+02  d E =-.147586E+02
       N       E                     dE             d eps       ncg     rms          rms(c)
DAV:   1    -0.147587282868E+02   -0.17658E-03   -0.24030E-03   796   0.305E-01    0.242E-02
DAV:   2    -0.147587210846E+02    0.72022E-05   -0.18612E-05   786   0.308E-02    0.153E-02
DAV:   3    -0.147587162957E+02    0.47889E-05   -0.37106E-06   716   0.142E-02    0.618E-04
DAV:   4    -0.147587163040E+02   -0.82459E-08   -0.26436E-08   362   0.161E-03
   2 F= -.14758716E+02 E0= -.14758388E+02  d E =-.164712E-03
       N       E                     dE             d eps       ncg     rms          rms(c)
DAV:   1    -0.147587174151E+02   -0.11193E-05   -0.12334E-05   790   0.218E-02    0.171E-03
DAV:   2    -0.147587172972E+02    0.11790E-06   -0.81583E-08   356   0.218E-03
   3 F= -.14758717E+02 E0= -.14758389E+02  d E =-.165705E-03
