 vasp.5.3.2 13Sep12 (build Jun 30 2016 14:08:18) complex                        
  
 executed on             LinuxIFC date 2017.10.16  15:54:04
 running on    2 total cores
 distrk:  each k-point on    2 cores,    1 groups
 distr:  one band on NCORES_PER_BAND=   1 cores,    2 groups


--------------------------------------------------------------------------------------------------------


 INCAR:
 POTCAR:    PAW Al                                
 POTCAR:    PAW Al                                
   VRHFIN =Al: s2p1                                                             
   LEXCH  = 91                                                                  
   EATOM  =    53.6910 eV,    3.9462 Ry                                         
                                                                                
   TITEL  = PAW Al                                                              
   LULTRA =        F    use ultrasoft PP ?                                      
   IUNSCR =        1    unscreen: 0-lin 1-nonlin 2-no                           
   RPACOR =    1.500    partial core radius                                     
   POMASS =   26.982; ZVAL   =    3.000    mass and valenz                      
   RCORE  =    1.900    outmost cutoff radius                                   
   RWIGS  =    2.650; RWIGS  =    1.402    wigner-seitz radius (au A)           
   ENMAX  =  240.437; ENMIN  =  180.327 eV                                      
   ICORE  =        2    local potential                                         
   LCOR   =        T    correct aug charges                                     
   LPAW   =        T    paw PP                                                  
   EAUG   =  291.052                                                            
   DEXC   =    -.017                                                            
   RMAX   =    2.974    core radius for proj-oper                               
   RAUG   =    1.300    factor for augmentation sphere                          
   RDEP   =    1.966    core radius for depl-charge                             
   QCUT   =   -4.204; QGAM   =    8.408    optimization parameters              
                                                                                
   Description                                                                  
     l     E      TYP  RCUT    TYP  RCUT                                        
     0   .000     23  1.900                                                     
     0   .000     23  1.900                                                     
     1   .000     23  1.900                                                     
     1  1.000     23  1.900                                                     
     2   .000      7  1.900                                                     
  local pseudopotential read in
  partial core-charges read in
  atomic valenz-charges read in
  non local Contribution for L=           0  read in
    real space projection operators read in
  non local Contribution for L=           0  read in
    real space projection operators read in
  non local Contribution for L=           1  read in
    real space projection operators read in
  non local Contribution for L=           1  read in
    real space projection operators read in
    PAW grid and wavefunctions read in
 
   number of l-projection  operators is LMAX  =           4
   number of lm-projection operators is LMMAX =           8
 
  PAW Al                                :
 energy of atom  1       EATOM=  -53.6910
 kinetic energy error for atom=    0.0030 (will be added to EATOM!!)
 
 
 POSCAR: Al                                      
  positions in direct lattice
  No initial velocities read in
 exchange correlation table for  LEXCH =        7
   RHO(1)=    0.500       N(1)  =     2000
   RHO(2)=  100.500       N(2)  =     4000
 


--------------------------------------------------------------------------------------------------------


 ion  position               nearest neighbor table
   1  0.000  0.000  0.000-   2 2.86   3 2.86   4 2.86   2 2.86   3 2.86   2 2.86   4 2.86   2 2.86
                             3 2.86   4 2.86   3 2.86   4 2.86
   2  0.000  0.500  0.500-   1 2.86   3 2.86   4 2.86   1 2.86   4 2.86   1 2.86   3 2.86   1 2.86
                             3 2.86   4 2.86   4 2.86   3 2.86
   3  0.500  0.000  0.500-   1 2.86   2 2.86   4 2.86   1 2.86   4 2.86   2 2.86   4 2.86   4 2.86
                             1 2.86   2 2.86   1 2.86   2 2.86
   4  0.500  0.500  0.000-   1 2.86   2 2.86   3 2.86   2 2.86   3 2.86   1 2.86   3 2.86   3 2.86
                             1 2.86   2 2.86   2 2.86   1 2.86
 
  LATTYP: Found a simple cubic cell.
 ALAT       =     4.0500000000
  
  Lattice vectors:
  
 A1 = (   4.0500000000,   0.0000000000,   0.0000000000)
 A2 = (   0.0000000000,   4.0500000000,   0.0000000000)
 A3 = (   0.0000000000,   0.0000000000,   4.0500000000)


Analysis of symmetry for initial positions (statically):
=====================================================================
 Subroutine PRICEL returns following result:
 
  LATTYP: Found a face centered cubic cell.
 ALAT       =     4.0500000000
  
  Lattice vectors:
  
 A1 = (   2.0250000000,   2.0250000000,   0.0000000000)
 A2 = (   2.0250000000,   0.0000000000,  -2.0250000000)
 A3 = (   0.0000000000,   2.0250000000,  -2.0250000000)
 
   4 primitive cells build up your supercell.
 

 Routine SETGRP: Setting up the symmetry group for a 
 simple cubic supercell.


 Subroutine GETGRP returns: Found 48 space group operations
 (whereof 48 operations were pure point group operations)
 out of a pool of 48 trial point group operations.


The static configuration has the point symmetry O_h .


Analysis of symmetry for dynamics (positions and initial velocities):
=====================================================================
 Subroutine PRICEL returns following result:
 
  LATTYP: Found a face centered cubic cell.
 ALAT       =     4.0500000000
  
  Lattice vectors:
  
 A1 = (   2.0250000000,   2.0250000000,   0.0000000000)
 A2 = (   2.0250000000,   0.0000000000,  -2.0250000000)
 A3 = (   0.0000000000,   2.0250000000,  -2.0250000000)
 
   4 primitive cells build up your supercell.
 

 Routine SETGRP: Setting up the symmetry group for a 
 simple cubic supercell.


 Subroutine GETGRP returns: Found 48 space group operations
 (whereof 48 operations were pure point group operations)
 out of a pool of 48 trial point group operations.


The dynamic configuration has the point symmetry O_h .
 
 
 KPOINTS: 10x10x10                                

Automatic generation of k-mesh.
Space group operators:
 irot       det(A)        alpha          n_x          n_y          n_z        tau_x        tau_y        tau_z
    1     1.000000     0.000001     1.000000     0.000000     0.000000     0.000000     0.000000     0.000000
    2    -1.000000     0.000001     1.000000     0.000000     0.000000     0.000000     0.000000     0.000000
    3     1.000000   120.000000    -0.577350    -0.577350    -0.577350     0.000000     0.000000     0.000000
    4    -1.000000   120.000000    -0.577350    -0.577350    -0.577350     0.000000     0.000000     0.000000
    5     1.000000   120.000000     0.577350     0.577350     0.577350     0.000000     0.000000     0.000000
    6    -1.000000   120.000000     0.577350     0.577350     0.577350     0.000000     0.000000     0.000000
    7     1.000000    90.000000     0.000000     0.000000    -1.000000     0.000000     0.000000     0.000000
    8    -1.000000    90.000000     0.000000     0.000000    -1.000000     0.000000     0.000000     0.000000
    9     1.000000   180.000000     0.000000     0.707107     0.707107     0.000000     0.000000     0.000000
   10    -1.000000   180.000000     0.000000     0.707107     0.707107     0.000000     0.000000     0.000000
   11     1.000000    90.000000     0.000000     1.000000     0.000000     0.000000     0.000000     0.000000
   12    -1.000000    90.000000     0.000000     1.000000     0.000000     0.000000     0.000000     0.000000
   13     1.000000   180.000000     0.000000     0.000000     1.000000     0.000000     0.000000     0.000000
   14    -1.000000   180.000000     0.000000     0.000000     1.000000     0.000000     0.000000     0.000000
   15     1.000000   120.000000    -0.577350     0.577350     0.577350     0.000000     0.000000     0.000000
   16    -1.000000   120.000000    -0.577350     0.577350     0.577350     0.000000     0.000000     0.000000
   17     1.000000   120.000000    -0.577350     0.577350    -0.577350     0.000000     0.000000     0.000000
   18    -1.000000   120.000000    -0.577350     0.577350    -0.577350     0.000000     0.000000     0.000000
   19     1.000000    90.000000     0.000000     0.000000     1.000000     0.000000     0.000000     0.000000
   20    -1.000000    90.000000     0.000000     0.000000     1.000000     0.000000     0.000000     0.000000
   21     1.000000    90.000000    -1.000000     0.000000     0.000000     0.000000     0.000000     0.000000
   22    -1.000000    90.000000    -1.000000     0.000000     0.000000     0.000000     0.000000     0.000000
   23     1.000000   180.000000     0.707107     0.000000     0.707107     0.000000     0.000000     0.000000
   24    -1.000000   180.000000     0.707107     0.000000     0.707107     0.000000     0.000000     0.000000
   25     1.000000   120.000000     0.577350    -0.577350     0.577350     0.000000     0.000000     0.000000
   26    -1.000000   120.000000     0.577350    -0.577350     0.577350     0.000000     0.000000     0.000000
   27     1.000000   120.000000    -0.577350    -0.577350     0.577350     0.000000     0.000000     0.000000
   28    -1.000000   120.000000    -0.577350    -0.577350     0.577350     0.000000     0.000000     0.000000
   29     1.000000   180.000000     1.000000     0.000000     0.000000     0.000000     0.000000     0.000000
   30    -1.000000   180.000000     1.000000     0.000000     0.000000     0.000000     0.000000     0.000000
   31     1.000000    90.000000     0.000000    -1.000000     0.000000     0.000000     0.000000     0.000000
   32    -1.000000    90.000000     0.000000    -1.000000     0.000000     0.000000     0.000000     0.000000
   33     1.000000   180.000000     0.707107     0.707107     0.000000     0.000000     0.000000     0.000000
   34    -1.000000   180.000000     0.707107     0.707107     0.000000     0.000000     0.000000     0.000000
   35     1.000000    90.000000     1.000000     0.000000     0.000000     0.000000     0.000000     0.000000
   36    -1.000000    90.000000     1.000000     0.000000     0.000000     0.000000     0.000000     0.000000
   37     1.000000   120.000000     0.577350    -0.577350    -0.577350     0.000000     0.000000     0.000000
   38    -1.000000   120.000000     0.577350    -0.577350    -0.577350     0.000000     0.000000     0.000000
   39     1.000000   180.000000     0.000000     1.000000     0.000000     0.000000     0.000000     0.000000
   40    -1.000000   180.000000     0.000000     1.000000     0.000000     0.000000     0.000000     0.000000
   41     1.000000   120.000000     0.577350     0.577350    -0.577350     0.000000     0.000000     0.000000
   42    -1.000000   120.000000     0.577350     0.577350    -0.577350     0.000000     0.000000     0.000000
   43     1.000000   180.000000     0.000000    -0.707107     0.707107     0.000000     0.000000     0.000000
   44    -1.000000   180.000000     0.000000    -0.707107     0.707107     0.000000     0.000000     0.000000
   45     1.000000   180.000000     0.707107    -0.707107     0.000000     0.000000     0.000000     0.000000
   46    -1.000000   180.000000     0.707107    -0.707107     0.000000     0.000000     0.000000     0.000000
   47     1.000000   180.000000     0.707107     0.000000    -0.707107     0.000000     0.000000     0.000000
   48    -1.000000   180.000000     0.707107     0.000000    -0.707107     0.000000     0.000000     0.000000
 
 Subroutine IBZKPT returns following result:
 ===========================================
 
 Found     35 irreducible k-points:
 
 Following reciprocal coordinates:
            Coordinates               Weight
  0.050000  0.050000  0.050000      8.000000
  0.150000  0.050000  0.050000     24.000000
  0.250000  0.050000  0.050000     24.000000
  0.350000  0.050000  0.050000     24.000000
  0.450000  0.050000  0.050000     24.000000
  0.150000  0.150000  0.050000     24.000000
  0.250000  0.150000  0.050000     48.000000
  0.350000  0.150000  0.050000     48.000000
  0.450000  0.150000  0.050000     48.000000
  0.250000  0.250000  0.050000     24.000000
  0.350000  0.250000  0.050000     48.000000
  0.450000  0.250000  0.050000     48.000000
  0.350000  0.350000  0.050000     24.000000
  0.450000  0.350000  0.050000     48.000000
  0.450000  0.450000  0.050000     24.000000
  0.150000  0.150000  0.150000      8.000000
  0.250000  0.150000  0.150000     24.000000
  0.350000  0.150000  0.150000     24.000000
  0.450000  0.150000  0.150000     24.000000
  0.250000  0.250000  0.150000     24.000000
  0.350000  0.250000  0.150000     48.000000
  0.450000  0.250000  0.150000     48.000000
  0.350000  0.350000  0.150000     24.000000
  0.450000  0.350000  0.150000     48.000000
  0.450000  0.450000  0.150000     24.000000
  0.250000  0.250000  0.250000      8.000000
  0.350000  0.250000  0.250000     24.000000
  0.450000  0.250000  0.250000     24.000000
  0.350000  0.350000  0.250000     24.000000
  0.450000  0.350000  0.250000     48.000000
  0.450000  0.450000  0.250000     24.000000
  0.350000  0.350000  0.350000      8.000000
  0.450000  0.350000  0.350000     24.000000
  0.450000  0.450000  0.350000     24.000000
  0.450000  0.450000  0.450000      8.000000
 
 Following cartesian coordinates:
            Coordinates               Weight
  0.050000  0.050000  0.050000      8.000000
  0.150000  0.050000  0.050000     24.000000
  0.250000  0.050000  0.050000     24.000000
  0.350000  0.050000  0.050000     24.000000
  0.450000  0.050000  0.050000     24.000000
  0.150000  0.150000  0.050000     24.000000
  0.250000  0.150000  0.050000     48.000000
  0.350000  0.150000  0.050000     48.000000
  0.450000  0.150000  0.050000     48.000000
  0.250000  0.250000  0.050000     24.000000
  0.350000  0.250000  0.050000     48.000000
  0.450000  0.250000  0.050000     48.000000
  0.350000  0.350000  0.050000     24.000000
  0.450000  0.350000  0.050000     48.000000
  0.450000  0.450000  0.050000     24.000000
  0.150000  0.150000  0.150000      8.000000
  0.250000  0.150000  0.150000     24.000000
  0.350000  0.150000  0.150000     24.000000
  0.450000  0.150000  0.150000     24.000000
  0.250000  0.250000  0.150000     24.000000
  0.350000  0.250000  0.150000     48.000000
  0.450000  0.250000  0.150000     48.000000
  0.350000  0.350000  0.150000     24.000000
  0.450000  0.350000  0.150000     48.000000
  0.450000  0.450000  0.150000     24.000000
  0.250000  0.250000  0.250000      8.000000
  0.350000  0.250000  0.250000     24.000000
  0.450000  0.250000  0.250000     24.000000
  0.350000  0.350000  0.250000     24.000000
  0.450000  0.350000  0.250000     48.000000
  0.450000  0.450000  0.250000     24.000000
  0.350000  0.350000  0.350000      8.000000
  0.450000  0.350000  0.350000     24.000000
  0.450000  0.450000  0.350000     24.000000
  0.450000  0.450000  0.450000      8.000000
 


--------------------------------------------------------------------------------------------------------




 Dimension of arrays:
   k-points           NKPTS =     35   k-points in BZ     NKDIM =     35   number of bands    NBANDS=     10
   number of dos      NEDOS =    301   number of ions     NIONS =      4
   non local maximal  LDIM  =      4   non local SUM 2l+1 LMDIM =      8
   total plane-waves  NPLWV =   4096
   max r-space proj   IRMAX =      1   max aug-charges    IRDMAX=   2599
   dimension x,y,z NGX =    16 NGY =   16 NGZ =   16
   dimension x,y,z NGXF=    32 NGYF=   32 NGZF=   32
   support grid    NGXF=    32 NGYF=   32 NGZF=   32
   ions per type =               4
 NGX,Y,Z   is equivalent  to a cutoff of   6.57,  6.57,  6.57 a.u.
 NGXF,Y,Z  is equivalent  to a cutoff of  13.14, 13.14, 13.14 a.u.


 I would recommend the setting:
   dimension x,y,z NGX =    15 NGY =   15 NGZ =   15
 SYSTEM =  bcc Al                                  
 POSCAR =  Al                                      

 Startparameter for this run:
   NWRITE =      2    write-flag & timer
   PREC   = normal    normal or accurate (medium, high low for compatibility)
   ISTART =      0    job   : 0-new  1-cont  2-samecut
   ICHARG =      2    charge: 1-file 2-atom 10-const
   ISPIN  =      1    spin polarized calculation?
   LNONCOLLINEAR =      F non collinear calculations
   LSORBIT =      F    spin-orbit coupling
   INIWAV =      1    electr: 0-lowe 1-rand  2-diag
   LASPH  =      F    aspherical Exc in radial PAW
   METAGGA=      F    non-selfconsistent MetaGGA calc.

 Electronic Relaxation 1
   ENCUT  =  240.4 eV  17.67 Ry    4.20 a.u.   5.12  5.12  5.12*2*pi/ulx,y,z
   ENINI  =  240.4     initial cutoff
   ENAUG  =  291.1 eV  augmentation charge cutoff
   NELM   =     60;   NELMIN=  2; NELMDL= -5     # of ELM steps 
   EDIFF  = 0.1E-05   stopping-criterion for ELM
   LREAL  =      F    real-space projection
   NLSPLINE    = F    spline interpolate recip. space projectors
   LCOMPAT=      F    compatible to vasp.4.4
   GGA_COMPAT  = T    GGA compatible to vasp.4.4-vasp.4.6
   LMAXPAW     = -100 max onsite density
   LMAXMIX     =    2 max onsite mixed and CHGCAR
   VOSKOWN=      0    Vosko Wilk Nusair interpolation
   ROPT   =    0.00000
 Ionic relaxation
   EDIFFG = 0.1E-04   stopping-criterion for IOM
   NSW    =     50    number of steps for IOM
   NBLOCK =      1;   KBLOCK =     50    inner block; outer block 
   IBRION =      2    ionic relax: 0-MD 1-quasi-New 2-CG
   NFREE  =      1    steps in history (QN), initial steepest desc. (CG)
   ISIF   =      3    stress and relaxation
   IWAVPR =     11    prediction:  0-non 1-charg 2-wave 3-comb
   ISYM   =      2    0-nonsym 1-usesym 2-fastsym
   LCORR  =      T    Harris-Foulkes like correction to forces

   POTIM  = 0.5000    time-step for ionic-motion
   TEIN   =    0.0    initial temperature
   TEBEG  =    0.0;   TEEND  =   0.0 temperature during run
   SMASS  =  -3.00    Nose mass-parameter (am)
   estimated Nose-frequenzy (Omega)   =  0.10E-29 period in steps =****** mass=  -0.375E-27a.u.
   SCALEE = 1.0000    scale energy and forces
   NPACO  =    256;   APACO  = 16.0  distance and # of slots for P.C.
   PSTRESS=    0.0 pullay stress

  Mass of Ions in am
   POMASS =  26.98
  Ionic Valenz
   ZVAL   =   3.00
  Atomic Wigner-Seitz radii
   RWIGS  =   1.40
  virtual crystal weights 
   VCA    =   1.00
   NELECT =      12.0000    total number of electrons
   NUPDOWN=      -1.0000    fix difference up-down

 DOS related values:
   EMIN   =  10.00;   EMAX   =-10.00  energy-range for DOS
   EFERMI =   0.00
   ISMEAR =     1;   SIGMA  =   0.20  broadening in eV -4-tet -1-fermi 0-gaus

 Electronic relaxation 2 (details)
   IALGO  =     38    algorithm
   LDIAG  =      T    sub-space diagonalisation (order eigenvalues)
   LSUBROT=      T    optimize rotation matrix (better conditioning)
   TURBO    =      0    0=normal 1=particle mesh
   IRESTART =      0    0=no restart 2=restart with 2 vectors
   NREBOOT  =      0    no. of reboots
   NMIN     =      0    reboot dimension
   EREF     =   0.00    reference energy to select bands
   IMIX   =      4    mixing-type and parameters
     AMIX     =   0.40;   BMIX     =  1.00
     AMIX_MAG =   1.60;   BMIX_MAG =  1.00
     AMIN     =   0.10
     WC   =   100.;   INIMIX=   1;  MIXPRE=   1;  MAXMIX= -45

 Intra band minimization:
   WEIMIN = 0.0010     energy-eigenvalue tresh-hold
   EBREAK =  0.25E-07  absolut break condition
   DEPER  =   0.30     relativ break condition  

   TIME   =   0.40     timestep for ELM

  volume/ion in A,a.u.               =      16.61       112.07
  Fermi-wavevector in a.u.,A,eV,Ry     =   0.925437  1.748822 11.652489  0.856434
  Thomas-Fermi vector in A             =   2.051291
 
 Write flags
   LWAVE  =      T    write WAVECAR
   LCHARG =      T    write CHGCAR
   LVTOT  =      F    write LOCPOT, total local potential
   LVHAR  =      F    write LOCPOT, Hartree potential only
   LELF   =      F    write electronic localiz. function (ELF)
   LORBIT =      0    0 simple, 1 ext, 2 COOP (PROOUT)


 Dipole corrections
   LMONO  =      F    monopole corrections only (constant potential shift)
   LDIPOL =      F    correct potential (dipole corrections)
   IDIPOL =      0    1-x, 2-y, 3-z, 4-all directions 
   EPSILON=  1.0000000 bulk dielectric constant

 Exchange correlation treatment:
   GGA     =    --    GGA type
   LEXCH   =     7    internal setting for exchange type
   VOSKOWN=      0    Vosko Wilk Nusair interpolation
   LHFCALC =     F    Hartree Fock is set to
   LHFONE  =     F    Hartree Fock one center treatment
   AEXX    =    0.0000 exact exchange contribution

 Linear response parameters
   LEPSILON=     F    determine dielectric tensor
   LRPA    =     F    only Hartree local field effects (RPA)
   LNABLA  =     F    use nabla operator in PAW spheres
   LVEL    =     F    velocity operator in full k-point grid
   LINTERFAST=   F  fast interpolation
   KINTER  =     0    interpolate to denser k-point grid
   CSHIFT  =0.1000    complex shift for real part using Kramers Kronig
   OMEGAMAX=  -1.0    maximum frequency
   DEG_THRESHOLD= 0.2000000E-02 threshold for treating states as degnerate
   RTIME   =    0.100 relaxation time in fs

 Orbital magnetization related:
   ORBITALMAG=     F  switch on orbital magnetization
   LCHIMAG   =     F  perturbation theory with respect to B field
   DQ        =  0.001000  dq finite difference perturbation B field



--------------------------------------------------------------------------------------------------------


 conjugate gradient relaxation of ions
 charge density and potential will be updated during run
 non-spin polarized calculation
 Variant of blocked Davidson
 Davidson routine will perform the subspace rotation
 perform sub-space diagonalisation
    after iterative eigenvector-optimisation
 modified Broyden-mixing scheme, WC =      100.0
 initial mixing is a Kerker type mixing with AMIX =  0.4000 and BMIX =      1.0000
 Hartree-type preconditioning will be used
 using additional bands            4
 reciprocal scheme for non local part
 use partial core corrections
 calculate Harris-corrections to forces 
   (improved forces if not selfconsistent)
 use gradient corrections 
 use of overlap-Matrix (Vanderbilt PP)
 Methfessel and Paxton  Order N= 1 SIGMA  =   0.20


--------------------------------------------------------------------------------------------------------


  energy-cutoff  :      240.44
  volume of cell :       66.43
      direct lattice vectors                 reciprocal lattice vectors
     4.050000000  0.000000000  0.000000000     0.246913580  0.000000000  0.000000000
     0.000000000  4.050000000  0.000000000     0.000000000  0.246913580  0.000000000
     0.000000000  0.000000000  4.050000000     0.000000000  0.000000000  0.246913580

  length of vectors
     4.050000000  4.050000000  4.050000000     0.246913580  0.246913580  0.246913580


 
 k-points in units of 2pi/SCALE and weight: 10x10x10                                
   0.05000000  0.05000000  0.05000000       0.008
   0.15000000  0.05000000  0.05000000       0.024
   0.25000000  0.05000000  0.05000000       0.024
   0.35000000  0.05000000  0.05000000       0.024
   0.45000000  0.05000000  0.05000000       0.024
   0.15000000  0.15000000  0.05000000       0.024
   0.25000000  0.15000000  0.05000000       0.048
   0.35000000  0.15000000  0.05000000       0.048
   0.45000000  0.15000000  0.05000000       0.048
   0.25000000  0.25000000  0.05000000       0.024
   0.35000000  0.25000000  0.05000000       0.048
   0.45000000  0.25000000  0.05000000       0.048
   0.35000000  0.35000000  0.05000000       0.024
   0.45000000  0.35000000  0.05000000       0.048
   0.45000000  0.45000000  0.05000000       0.024
   0.15000000  0.15000000  0.15000000       0.008
   0.25000000  0.15000000  0.15000000       0.024
   0.35000000  0.15000000  0.15000000       0.024
   0.45000000  0.15000000  0.15000000       0.024
   0.25000000  0.25000000  0.15000000       0.024
   0.35000000  0.25000000  0.15000000       0.048
   0.45000000  0.25000000  0.15000000       0.048
   0.35000000  0.35000000  0.15000000       0.024
   0.45000000  0.35000000  0.15000000       0.048
   0.45000000  0.45000000  0.15000000       0.024
   0.25000000  0.25000000  0.25000000       0.008
   0.35000000  0.25000000  0.25000000       0.024
   0.45000000  0.25000000  0.25000000       0.024
   0.35000000  0.35000000  0.25000000       0.024
   0.45000000  0.35000000  0.25000000       0.048
   0.45000000  0.45000000  0.25000000       0.024
   0.35000000  0.35000000  0.35000000       0.008
   0.45000000  0.35000000  0.35000000       0.024
   0.45000000  0.45000000  0.35000000       0.024
   0.45000000  0.45000000  0.45000000       0.008
 
 k-points in reciprocal lattice and weights: 10x10x10                                
   0.05000000  0.05000000  0.05000000       0.008
   0.15000000  0.05000000  0.05000000       0.024
   0.25000000  0.05000000  0.05000000       0.024
   0.35000000  0.05000000  0.05000000       0.024
   0.45000000  0.05000000  0.05000000       0.024
   0.15000000  0.15000000  0.05000000       0.024
   0.25000000  0.15000000  0.05000000       0.048
   0.35000000  0.15000000  0.05000000       0.048
   0.45000000  0.15000000  0.05000000       0.048
   0.25000000  0.25000000  0.05000000       0.024
   0.35000000  0.25000000  0.05000000       0.048
   0.45000000  0.25000000  0.05000000       0.048
   0.35000000  0.35000000  0.05000000       0.024
   0.45000000  0.35000000  0.05000000       0.048
   0.45000000  0.45000000  0.05000000       0.024
   0.15000000  0.15000000  0.15000000       0.008
   0.25000000  0.15000000  0.15000000       0.024
   0.35000000  0.15000000  0.15000000       0.024
   0.45000000  0.15000000  0.15000000       0.024
   0.25000000  0.25000000  0.15000000       0.024
   0.35000000  0.25000000  0.15000000       0.048
   0.45000000  0.25000000  0.15000000       0.048
   0.35000000  0.35000000  0.15000000       0.024
   0.45000000  0.35000000  0.15000000       0.048
   0.45000000  0.45000000  0.15000000       0.024
   0.25000000  0.25000000  0.25000000       0.008
   0.35000000  0.25000000  0.25000000       0.024
   0.45000000  0.25000000  0.25000000       0.024
   0.35000000  0.35000000  0.25000000       0.024
   0.45000000  0.35000000  0.25000000       0.048
   0.45000000  0.45000000  0.25000000       0.024
   0.35000000  0.35000000  0.35000000       0.008
   0.45000000  0.35000000  0.35000000       0.024
   0.45000000  0.45000000  0.35000000       0.024
   0.45000000  0.45000000  0.45000000       0.008
 
 position of ions in fractional coordinates (direct lattice) 
   0.00000000  0.00000000  0.00000000
   0.00000000  0.50000000  0.50000000
   0.50000000  0.00000000  0.50000000
   0.50000000  0.50000000  0.00000000
 
 position of ions in cartesian coordinates  (Angst):
   0.00000000  0.00000000  0.00000000
   0.00000000  2.02500000  2.02500000
   2.02500000  0.00000000  2.02500000
   2.02500000  2.02500000  0.00000000
 


--------------------------------------------------------------------------------------------------------


 k-point  1 :   0.0500 0.0500 0.0500  plane waves:     564
 k-point  2 :   0.1500 0.0500 0.0500  plane waves:     555
 k-point  3 :   0.2500 0.0500 0.0500  plane waves:     557
 k-point  4 :   0.3500 0.0500 0.0500  plane waves:     558
 k-point  5 :   0.4500 0.0500 0.0500  plane waves:     570
 k-point  6 :   0.1500 0.1500 0.0500  plane waves:     554
 k-point  7 :   0.2500 0.1500 0.0500  plane waves:     557
 k-point  8 :   0.3500 0.1500 0.0500  plane waves:     557
 k-point  9 :   0.4500 0.1500 0.0500  plane waves:     562
 k-point 10 :   0.2500 0.2500 0.0500  plane waves:     555
 k-point 11 :   0.3500 0.2500 0.0500  plane waves:     564
 k-point 12 :   0.4500 0.2500 0.0500  plane waves:     561
 k-point 13 :   0.3500 0.3500 0.0500  plane waves:     566
 k-point 14 :   0.4500 0.3500 0.0500  plane waves:     561
 k-point 15 :   0.4500 0.4500 0.0500  plane waves:     559
 k-point 16 :   0.1500 0.1500 0.1500  plane waves:     561
 k-point 17 :   0.2500 0.1500 0.1500  plane waves:     562
 k-point 18 :   0.3500 0.1500 0.1500  plane waves:     560
 k-point 19 :   0.4500 0.1500 0.1500  plane waves:     563
 k-point 20 :   0.2500 0.2500 0.1500  plane waves:     558
 k-point 21 :   0.3500 0.2500 0.1500  plane waves:     562
 k-point 22 :   0.4500 0.2500 0.1500  plane waves:     564
 k-point 23 :   0.3500 0.3500 0.1500  plane waves:     563
 k-point 24 :   0.4500 0.3500 0.1500  plane waves:     561
 k-point 25 :   0.4500 0.4500 0.1500  plane waves:     561
 k-point 26 :   0.2500 0.2500 0.2500  plane waves:     579
 k-point 27 :   0.3500 0.2500 0.2500  plane waves:     567
 k-point 28 :   0.4500 0.2500 0.2500  plane waves:     567
 k-point 29 :   0.3500 0.3500 0.2500  plane waves:     566
 k-point 30 :   0.4500 0.3500 0.2500  plane waves:     567
 k-point 31 :   0.4500 0.4500 0.2500  plane waves:     568
 k-point 32 :   0.3500 0.3500 0.3500  plane waves:     564
 k-point 33 :   0.4500 0.3500 0.3500  plane waves:     565
 k-point 34 :   0.4500 0.4500 0.3500  plane waves:     569
 k-point 35 :   0.4500 0.4500 0.4500  plane waves:     570

 maximum and minimum number of plane-waves per node :       579      554

 maximum number of plane-waves:       579
 maximum index in each direction: 
   IXMAX=    5   IYMAX=    5   IZMAX=    5
   IXMIN=   -5   IYMIN=   -5   IZMIN=   -5

 WARNING: aliasing errors must be expected set NGX to  22 to avoid them
 WARNING: aliasing errors must be expected set NGY to  22 to avoid them
 WARNING: aliasing errors must be expected set NGZ to  22 to avoid them
 aliasing errors are usually negligible using standard VASP settings
 and one can safely disregard these warnings

 serial   3D FFT for wavefunctions
 parallel 3D FFT for charge:
    minimum data exchange during FFTs selected (reduces bandwidth)


 total amount of memory used by VASP on root node    35630. kBytes
========================================================================

   base      :      30000. kBytes
   nonl-proj :       1336. kBytes
   fftplans  :       1128. kBytes
   grid      :       1441. kBytes
   one-center:         12. kBytes
   wavefun   :       1713. kBytes
 
 Broyden mixing: mesh for mixing (old mesh)
   NGX = 11   NGY = 11   NGZ = 11
  (NGX  = 32   NGY  = 32   NGZ  = 32)
  gives a total of   1331 points

 initial charge density was supplied:
 charge density of overlapping atoms calculated
 number of electron      12.0000000 magnetization 
 keeping initial charge density in first step


--------------------------------------------------------------------------------------------------------


 Maximum index for augmentation-charges         1133 (set IRDMAX)


--------------------------------------------------------------------------------------------------------


 First call to EWALD:  gamma=   0.438
 Maximum number of real-space cells 3x 3x 3
 Maximum number of reciprocal cells 3x 3x 3

 FEWALD executed in parallel
    FEWALD:  cpu time    0.00: real time    0.01


----------------------------------------- Iteration    1(   1)  ---------------------------------------


    POTLOK:  cpu time    0.05: real time    0.08
    SETDIJ:  cpu time    0.01: real time    0.05
     EDDAV:  cpu time    0.32: real time    0.39
       DOS:  cpu time    0.00: real time    0.02
    --------------------------------------------
      LOOP:  cpu time    0.39: real time    0.57

 eigenvalue-minimisations  :   700
 total energy-change (2. order) :-0.7281450E+00  (-0.2669162E+03)
 number of electron      12.0000000 magnetization 
 augmentation part       12.0000000 magnetization 

 Free energy of the ion-electron system (eV)
  ---------------------------------------------------
  alpha Z        PSCENC =        -0.61330648
  Ewald energy   TEWEN  =      -293.42683892
  -1/2 Hartree   DENC   =        -0.42200802
  -exchange  EXHF       =         0.00000000
  -V(xc)+E(xc)   XCENC  =      -105.62208372
  PAW double counting   =       142.63640024      -14.42330091
  entropy T*S    EENTRO =         0.00047558
  eigenvalues    EBANDS =        56.39048910
  atomic energy  EATOM  =       214.75202816
  ---------------------------------------------------
  free energy    TOTEN  =        -0.72814496 eV

  energy without entropy =       -0.72862054  energy(sigma->0) =       -0.72830349


--------------------------------------------------------------------------------------------------------




----------------------------------------- Iteration    1(   2)  ---------------------------------------


     EDDAV:  cpu time    0.40: real time    0.39
       DOS:  cpu time    0.00: real time    0.00
    --------------------------------------------
      LOOP:  cpu time    0.40: real time    0.40

 eigenvalue-minimisations  :   966
 total energy-change (2. order) :-0.1370069E+02  (-0.1278138E+02)
 number of electron      12.0000000 magnetization 
 augmentation part       12.0000000 magnetization 

 Free energy of the ion-electron system (eV)
  ---------------------------------------------------
  alpha Z        PSCENC =        -0.61330648
  Ewald energy   TEWEN  =      -293.42683892
  -1/2 Hartree   DENC   =        -0.42200802
  -exchange  EXHF       =         0.00000000
  -V(xc)+E(xc)   XCENC  =      -105.62208372
  PAW double counting   =       142.63640024      -14.42330091
  entropy T*S    EENTRO =         0.00010768
  eigenvalues    EBANDS =        42.69016699
  atomic energy  EATOM  =       214.75202816
  ---------------------------------------------------
  free energy    TOTEN  =       -14.42883498 eV

  energy without entropy =      -14.42894266  energy(sigma->0) =      -14.42887088


--------------------------------------------------------------------------------------------------------




----------------------------------------- Iteration    1(   3)  ---------------------------------------


     EDDAV:  cpu time    0.38: real time    0.38
       DOS:  cpu time    0.00: real time    0.00
    --------------------------------------------
      LOOP:  cpu time    0.38: real time    0.38

 eigenvalue-minimisations  :   908
 total energy-change (2. order) :-0.4050839E+00  (-0.3989760E+00)
 number of electron      12.0000000 magnetization 
 augmentation part       12.0000000 magnetization 

 Free energy of the ion-electron system (eV)
  ---------------------------------------------------
  alpha Z        PSCENC =        -0.61330648
  Ewald energy   TEWEN  =      -293.42683892
  -1/2 Hartree   DENC   =        -0.42200802
  -exchange  EXHF       =         0.00000000
  -V(xc)+E(xc)   XCENC  =      -105.62208372
  PAW double counting   =       142.63640024      -14.42330091
  entropy T*S    EENTRO =        -0.00060454
  eigenvalues    EBANDS =        42.28579531
  atomic energy  EATOM  =       214.75202816
  ---------------------------------------------------
  free energy    TOTEN  =       -14.83391888 eV

  energy without entropy =      -14.83331434  energy(sigma->0) =      -14.83371737


--------------------------------------------------------------------------------------------------------




----------------------------------------- Iteration    1(   4)  ---------------------------------------


     EDDAV:  cpu time    0.37: real time    0.37
       DOS:  cpu time    0.00: real time    0.00
    --------------------------------------------
      LOOP:  cpu time    0.37: real time    0.38

 eigenvalue-minimisations  :   872
 total energy-change (2. order) :-0.2100586E-02  (-0.2096911E-02)
 number of electron      12.0000000 magnetization 
 augmentation part       12.0000000 magnetization 

 Free energy of the ion-electron system (eV)
  ---------------------------------------------------
  alpha Z        PSCENC =        -0.61330648
  Ewald energy   TEWEN  =      -293.42683892
  -1/2 Hartree   DENC   =        -0.42200802
  -exchange  EXHF       =         0.00000000
  -V(xc)+E(xc)   XCENC  =      -105.62208372
  PAW double counting   =       142.63640024      -14.42330091
  entropy T*S    EENTRO =        -0.00062140
  eigenvalues    EBANDS =        42.28371158
  atomic energy  EATOM  =       214.75202816
  ---------------------------------------------------
  free energy    TOTEN  =       -14.83601946 eV

  energy without entropy =      -14.83539806  energy(sigma->0) =      -14.83581233


--------------------------------------------------------------------------------------------------------




----------------------------------------- Iteration    1(   5)  ---------------------------------------


     EDDAV:  cpu time    0.37: real time    0.38
       DOS:  cpu time    0.00: real time    0.00
    CHARGE:  cpu time    0.03: real time    0.05
    MIXING:  cpu time    0.00: real time    0.03
    --------------------------------------------
      LOOP:  cpu time    0.41: real time    0.47

 eigenvalue-minimisations  :   844
 total energy-change (2. order) :-0.7947105E-05  (-0.7947677E-05)
 number of electron      11.9999991 magnetization 
 augmentation part       -0.1503100 magnetization 

 Broyden mixing:
  rms(total) = 0.18099E+00    rms(broyden)= 0.18098E+00
  rms(prec ) = 0.41885E+00
  weight for this iteration     100.00

 Free energy of the ion-electron system (eV)
  ---------------------------------------------------
  alpha Z        PSCENC =        -0.61330648
  Ewald energy   TEWEN  =      -293.42683892
  -1/2 Hartree   DENC   =        -0.42200802
  -exchange  EXHF       =         0.00000000
  -V(xc)+E(xc)   XCENC  =      -105.62208372
  PAW double counting   =       142.63640024      -14.42330091
  entropy T*S    EENTRO =        -0.00062140
  eigenvalues    EBANDS =        42.28370363
  atomic energy  EATOM  =       214.75202816
  ---------------------------------------------------
  free energy    TOTEN  =       -14.83602741 eV

  energy without entropy =      -14.83540601  energy(sigma->0) =      -14.83582028


--------------------------------------------------------------------------------------------------------




----------------------------------------- Iteration    1(   6)  ---------------------------------------


    POTLOK:  cpu time    0.03: real time    0.04
    SETDIJ:  cpu time    0.01: real time    0.01
     EDDAV:  cpu time    0.33: real time    0.33
       DOS:  cpu time    0.00: real time    0.00
    CHARGE:  cpu time    0.03: real time    0.03
    MIXING:  cpu time    0.00: real time    0.02
    --------------------------------------------
      LOOP:  cpu time    0.41: real time    0.43

 eigenvalue-minimisations  :   798
 total energy-change (2. order) : 0.4667210E-01  (-0.6093558E-03)
 number of electron      11.9999991 magnetization 
 augmentation part       -0.1524809 magnetization 

 Broyden mixing:
  rms(total) = 0.11277E+00    rms(broyden)= 0.11277E+00
  rms(prec ) = 0.26252E+00
  weight for this iteration     100.00

 eigenvalues of (default mixing * dielectric matrix)
  average eigenvalue GAMMA=   2.6423
  2.6423

 Free energy of the ion-electron system (eV)
  ---------------------------------------------------
  alpha Z        PSCENC =        -0.61330648
  Ewald energy   TEWEN  =      -293.42683892
  -1/2 Hartree   DENC   =        -0.35275850
  -exchange  EXHF       =         0.00000000
  -V(xc)+E(xc)   XCENC  =      -105.48272227
  PAW double counting   =       142.99744499      -14.81128263
  entropy T*S    EENTRO =        -0.00075923
  eigenvalues    EBANDS =        42.14883956
  atomic energy  EATOM  =       214.75202816
  ---------------------------------------------------
  free energy    TOTEN  =       -14.78935531 eV

  energy without entropy =      -14.78859608  energy(sigma->0) =      -14.78910223


--------------------------------------------------------------------------------------------------------




----------------------------------------- Iteration    1(   7)  ---------------------------------------


    POTLOK:  cpu time    0.04: real time    0.04
    SETDIJ:  cpu time    0.01: real time    0.01
     EDDAV:  cpu time    0.33: real time    0.33
       DOS:  cpu time    0.00: real time    0.00
    CHARGE:  cpu time    0.03: real time    0.03
    MIXING:  cpu time    0.00: real time    0.01
    --------------------------------------------
      LOOP:  cpu time    0.40: real time    0.42

 eigenvalue-minimisations  :   742
 total energy-change (2. order) : 0.3084384E-01  (-0.1694430E-02)
 number of electron      11.9999991 magnetization 
 augmentation part       -0.1565043 magnetization 

 Broyden mixing:
  rms(total) = 0.53134E-02    rms(broyden)= 0.53125E-02
  rms(prec ) = 0.95469E-02
  weight for this iteration     100.00

 eigenvalues of (default mixing * dielectric matrix)
  average eigenvalue GAMMA=   2.5998
  2.3713  2.8283

 Free energy of the ion-electron system (eV)
  ---------------------------------------------------
  alpha Z        PSCENC =        -0.61330648
  Ewald energy   TEWEN  =      -293.42683892
  -1/2 Hartree   DENC   =        -0.40607064
  -exchange  EXHF       =         0.00000000
  -V(xc)+E(xc)   XCENC  =      -105.19329638
  PAW double counting   =       143.51710594      -15.38041751
  entropy T*S    EENTRO =        -0.00101711
  eigenvalues    EBANDS =        41.99330148
  atomic energy  EATOM  =       214.75202816
  ---------------------------------------------------
  free energy    TOTEN  =       -14.75851147 eV

  energy without entropy =      -14.75749436  energy(sigma->0) =      -14.75817243


--------------------------------------------------------------------------------------------------------




----------------------------------------- Iteration    1(   8)  ---------------------------------------


    POTLOK:  cpu time    0.03: real time    0.03
    SETDIJ:  cpu time    0.00: real time    0.01
     EDDAV:  cpu time    0.38: real time    0.38
       DOS:  cpu time    0.00: real time    0.00
    CHARGE:  cpu time    0.03: real time    0.03
    MIXING:  cpu time    0.00: real time    0.00
    --------------------------------------------
      LOOP:  cpu time    0.45: real time    0.46

 eigenvalue-minimisations  :   910
 total energy-change (2. order) :-0.3595987E-04  (-0.1288364E-04)
 number of electron      11.9999991 magnetization 
 augmentation part       -0.1567606 magnetization 

 Broyden mixing:
  rms(total) = 0.13076E-02    rms(broyden)= 0.13074E-02
  rms(prec ) = 0.24965E-02
  weight for this iteration     100.00

 eigenvalues of (default mixing * dielectric matrix)
  average eigenvalue GAMMA=   2.0875
  0.9545  2.7607  2.5474

 Free energy of the ion-electron system (eV)
  ---------------------------------------------------
  alpha Z        PSCENC =        -0.61330648
  Ewald energy   TEWEN  =      -293.42683892
  -1/2 Hartree   DENC   =        -0.41644856
  -exchange  EXHF       =         0.00000000
  -V(xc)+E(xc)   XCENC  =      -105.18355295
  PAW double counting   =       143.58611667      -15.45333830
  entropy T*S    EENTRO =        -0.00101620
  eigenvalues    EBANDS =        41.99780915
  atomic energy  EATOM  =       214.75202816
  ---------------------------------------------------
  free energy    TOTEN  =       -14.75854743 eV

  energy without entropy =      -14.75753123  energy(sigma->0) =      -14.75820869


--------------------------------------------------------------------------------------------------------




----------------------------------------- Iteration    1(   9)  ---------------------------------------


    POTLOK:  cpu time    0.03: real time    0.03
    SETDIJ:  cpu time    0.00: real time    0.01
     EDDAV:  cpu time    0.29: real time    0.29
       DOS:  cpu time    0.00: real time    0.00
    CHARGE:  cpu time    0.03: real time    0.03
    MIXING:  cpu time    0.00: real time    0.00
    --------------------------------------------
      LOOP:  cpu time    0.36: real time    0.37

 eigenvalue-minimisations  :   654
 total energy-change (2. order) :-0.5311499E-05  (-0.7849261E-07)
 number of electron      11.9999991 magnetization 
 augmentation part       -0.1567802 magnetization 

 Broyden mixing:
  rms(total) = 0.17763E-03    rms(broyden)= 0.17757E-03
  rms(prec ) = 0.27996E-03
  weight for this iteration     100.00

 eigenvalues of (default mixing * dielectric matrix)
  average eigenvalue GAMMA=   2.1563
  1.0015  2.6651  2.6651  2.2934

 Free energy of the ion-electron system (eV)
  ---------------------------------------------------
  alpha Z        PSCENC =        -0.61330648
  Ewald energy   TEWEN  =      -293.42683892
  -1/2 Hartree   DENC   =        -0.41843482
  -exchange  EXHF       =         0.00000000
  -V(xc)+E(xc)   XCENC  =      -105.18318559
  PAW double counting   =       143.59434865      -15.46212983
  entropy T*S    EENTRO =        -0.00101393
  eigenvalues    EBANDS =        41.99998002
  atomic energy  EATOM  =       214.75202816
  ---------------------------------------------------
  free energy    TOTEN  =       -14.75855274 eV

  energy without entropy =      -14.75753881  energy(sigma->0) =      -14.75821476


--------------------------------------------------------------------------------------------------------




----------------------------------------- Iteration    1(  10)  ---------------------------------------


    POTLOK:  cpu time    0.03: real time    0.03
    SETDIJ:  cpu time    0.00: real time    0.00
     EDDAV:  cpu time    0.22: real time    0.22
       DOS:  cpu time    0.00: real time    0.00
    CHARGE:  cpu time    0.03: real time    0.03
    MIXING:  cpu time    0.00: real time    0.00
    --------------------------------------------
      LOOP:  cpu time    0.29: real time    0.30

 eigenvalue-minimisations  :   442
 total energy-change (2. order) : 0.1029856E-05  (-0.6652445E-08)
 number of electron      11.9999991 magnetization 
 augmentation part       -0.1567751 magnetization 

 Broyden mixing:
  rms(total) = 0.38211E-04    rms(broyden)= 0.38201E-04
  rms(prec ) = 0.75917E-04
  weight for this iteration     100.00

 eigenvalues of (default mixing * dielectric matrix)
  average eigenvalue GAMMA=   1.9843
  2.7485  2.6865  2.5401  0.9947  0.9517

 Free energy of the ion-electron system (eV)
  ---------------------------------------------------
  alpha Z        PSCENC =        -0.61330648
  Ewald energy   TEWEN  =      -293.42683892
  -1/2 Hartree   DENC   =        -0.41837948
  -exchange  EXHF       =         0.00000000
  -V(xc)+E(xc)   XCENC  =      -105.18355610
  PAW double counting   =       143.58587132      -15.45338049
  entropy T*S    EENTRO =        -0.00101378
  eigenvalues    EBANDS =        42.00002406
  atomic energy  EATOM  =       214.75202816
  ---------------------------------------------------
  free energy    TOTEN  =       -14.75855171 eV

  energy without entropy =      -14.75753793  energy(sigma->0) =      -14.75821378


--------------------------------------------------------------------------------------------------------




----------------------------------------- Iteration    1(  11)  ---------------------------------------


    POTLOK:  cpu time    0.03: real time    0.03
    SETDIJ:  cpu time    0.00: real time    0.00
     EDDAV:  cpu time    0.20: real time    0.20
       DOS:  cpu time    0.00: real time    0.00
    --------------------------------------------
      LOOP:  cpu time    0.25: real time    0.25

 eigenvalue-minimisations  :   398
 total energy-change (2. order) : 0.1156529E-06  (-0.6234009E-09)
 number of electron      11.9999991 magnetization 
 augmentation part       -0.1567751 magnetization 

 Free energy of the ion-electron system (eV)
  ---------------------------------------------------
  alpha Z        PSCENC =        -0.61330648
  Ewald energy   TEWEN  =      -293.42683892
  -1/2 Hartree   DENC   =        -0.41844165
  -exchange  EXHF       =         0.00000000
  -V(xc)+E(xc)   XCENC  =      -105.18349445
  PAW double counting   =       143.58495281      -15.45244495
  entropy T*S    EENTRO =        -0.00101382
  eigenvalues    EBANDS =        42.00000771
  atomic energy  EATOM  =       214.75202816
  ---------------------------------------------------
  free energy    TOTEN  =       -14.75855159 eV

  energy without entropy =      -14.75753777  energy(sigma->0) =      -14.75821365


--------------------------------------------------------------------------------------------------------




 average (electrostatic) potential at core
  the test charge radii are     1.0406
  (the norm of the test charge is              1.0000)
       1 -72.2957       2 -72.2957       3 -72.2957       4 -72.2957
 
 
 
 E-fermi :   7.9733     XC(G=0): -10.1857     alpha+bet :-14.7760


 k-point   1 :       0.0500    0.0500    0.0500
  band No.  band energies     occupation 
      1      -3.1119      2.00000
      2       4.6281      2.00000
      3       4.6281      2.00000
      4       4.6281      2.00000
      5       6.8057      2.00000
      6       6.8057      2.00000
      7       6.8057      2.00000
      8      12.0568      0.00000
      9      12.0568      0.00000
     10      12.0568      0.00000

 k-point   2 :       0.1500    0.0500    0.0500
  band No.  band energies     occupation 
      1      -2.9319      2.00000
      2       3.2097      2.00000
      3       4.7966      2.00000
      4       4.7966      2.00000
      5       6.9775      2.00000
      6       6.9775      2.00000
      7       8.5395     -0.00047
      8      10.6482      0.00000
      9      10.6482      0.00000
     10      12.2240      0.00000

 k-point   3 :       0.2500    0.0500    0.0500
  band No.  band energies     occupation 
      1      -2.5721      2.00000
      2       1.8433      2.00000
      3       5.1329      2.00000
      4       5.1329      2.00000
      5       7.3152      2.00003
      6       7.3152      2.00003
      7       9.3342      0.00000
      8       9.3342      0.00000
      9      10.5312      0.00000
     10      11.5553      0.00000

 k-point   4 :       0.3500    0.0500    0.0500
  band No.  band energies     occupation 
      1      -2.0341      2.00000
      2       0.6235      2.00000
      3       5.6361      2.00000
      4       5.6361      2.00000
      5       7.7742      2.04924
      6       7.7742      2.04924
      7       8.2131     -0.07071
      8       8.2131     -0.07071
      9      10.4551      0.00000
     10      10.4551      0.00000

 k-point   5 :       0.4500    0.0500    0.0500
  band No.  band energies     occupation 
      1      -1.3201      2.00000
      2      -0.4329      2.00000
      3       6.3020      2.00000
      4       6.3020      2.00000
      5       7.1418      2.00000
      6       7.1418      2.00000
      7       8.4572     -0.00329
      8       8.4572     -0.00329
      9       9.5365      0.00000
     10       9.5365      0.00000

 k-point   6 :       0.1500    0.1500    0.0500
  band No.  band energies     occupation 
      1      -2.7519      2.00000
      2       3.3816      2.00000
      3       3.3816      2.00000
      4       4.9648      2.00000
      5       7.1441      2.00000
      6       8.7037      0.00000
      7       8.7037      0.00000
      8       9.3065      0.00000
      9      10.8169      0.00000
     10      10.8169      0.00000

 k-point   7 :       0.2500    0.1500    0.0500
  band No.  band energies     occupation 
      1      -2.3925      2.00000
      2       2.0172      2.00000
      3       3.7251      2.00000
      4       5.3003      2.00000
      5       7.4320      2.00088
      6       8.0524      0.38488
      7       9.0064      0.00000
      8       9.5251      0.00000
      9      10.6683      0.00000
     10      11.1708      0.00000

 k-point   8 :       0.3500    0.1500    0.0500
  band No.  band energies     occupation 
      1      -1.8552      2.00000
      2       0.7992      2.00000
      3       4.2385      2.00000
      4       5.7995      2.00000
      5       6.7730      2.00000
      6       8.0569      0.35652
      7       8.3117     -0.03779
      8       9.5139      0.00000
      9      10.6610      0.00000
     10      11.6313      0.00000

 k-point   9 :       0.4500    0.1500    0.0500
  band No.  band energies     occupation 
      1      -1.1421      2.00000
      2      -0.2560      2.00000
      3       4.9195      2.00000
      4       5.7580      2.00000
      5       6.4887      2.00000
      6       7.3176      2.00004
      7       8.7084      0.00000
      8       9.4731      0.00000
      9      10.3741      0.00000
     10      11.1241      0.00000

 k-point  10 :       0.2500    0.2500    0.0500
  band No.  band energies     occupation 
      1      -2.0341      2.00000
      2       2.3645      2.00000
      3       2.3645      2.00000
      4       5.6319      2.00000
      5       6.6221      2.00000
      6       7.8943      1.61383
      7       9.8120      0.00000
      8       9.8120      0.00000
      9      11.0030      0.00000
     10      11.0030      0.00000

 k-point  11 :       0.3500    0.2500    0.0500
  band No.  band energies     occupation 
      1      -1.4982      2.00000
      2       1.1497      2.00000
      3       2.8843      2.00000
      4       5.4406      2.00000
      5       6.1553      2.00000
      6       8.3890     -0.01230
      7       8.6542     -0.00002
      8      10.3198      0.00000
      9      10.8110      0.00000
     10      11.6612      0.00000

 k-point  12 :       0.4500    0.2500    0.0500
  band No.  band energies     occupation 
      1      -0.7868      2.00000
      2       0.0970      2.00000
      3       3.5742      2.00000
      4       4.4301      2.00000
      5       6.8184      2.00000
      6       7.6540      2.04646
      7       9.0614      0.00000
      8       9.8882      0.00000
      9      10.9879      0.00000
     10      11.8194      0.00000

 k-point  13 :       0.3500    0.3500    0.0500
  band No.  band energies     occupation 
      1      -0.9643      2.00000
      2       1.6739      2.00000
      3       1.6739      2.00000
      4       4.2636      2.00000
      5       6.6513      2.00000
      6       8.8985      0.00000
      7       9.1575      0.00000
      8       9.1575      0.00000
      9      11.3785      0.00000
     10      11.3785      0.00000

 k-point  14 :       0.4500    0.3500    0.0500
  band No.  band energies     occupation 
      1      -0.2556      2.00000
      2       0.6253      2.00000
      3       2.3704      2.00000
      4       3.2353      2.00000
      5       7.3206      2.00004
      6       8.1567     -0.02853
      7       9.5735      0.00000
      8       9.8263      0.00000
      9      10.4053      0.00000
     10      10.6600      0.00000

 k-point  15 :       0.4500    0.4500    0.0500
  band No.  band energies     occupation 
      1       0.4496      2.00000
      2       1.3265      2.00000
      3       1.3265      2.00000
      4       2.1981      2.00000
      5       7.9904      0.85570
      6       8.8260      0.00000
      7       8.8260      0.00000
      8       9.6608      0.00000
      9      10.2468      0.00000
     10      11.0757      0.00000

 k-point  16 :       0.1500    0.1500    0.1500
  band No.  band energies     occupation 
      1      -2.5721      2.00000
      2       3.5531      2.00000
      3       3.5531      2.00000
      4       3.5531      2.00000
      5       8.8370      0.00000
      6       8.8370      0.00000
      7       8.8370      0.00000
      8       9.5061      0.00000
      9       9.5061      0.00000
     10       9.5061      0.00000

 k-point  17 :       0.2500    0.1500    0.1500
  band No.  band energies     occupation 
      1      -2.2132      2.00000
      2       2.1908      2.00000
      3       3.8962      2.00000
      4       3.8962      2.00000
      5       8.1130      0.08115
      6       8.1130      0.08115
      7       9.2561      0.00000
      8       9.2561      0.00000
      9       9.7646      0.00000
     10      10.8979      0.00000

 k-point  18 :       0.3500    0.1500    0.1500
  band No.  band energies     occupation 
      1      -1.6766      2.00000
      2       0.9748      2.00000
      3       4.4084      2.00000
      4       4.4084      2.00000
      5       6.9606      2.00000
      6       6.9606      2.00000
      7       9.7362      0.00000
      8       9.7362      0.00000
      9      10.2813      0.00000
     10      12.2472      0.00000

 k-point  19 :       0.4500    0.1500    0.1500
  band No.  band energies     occupation 
      1      -0.9644      2.00000
      2      -0.0794      2.00000
      3       5.0809      2.00000
      4       5.0809      2.00000
      5       5.9603      2.00000
      6       5.9603      2.00000
      7      10.3541      0.00000
      8      10.3541      0.00000
      9      10.9507      0.00000
     10      11.3284      0.00000

 k-point  20 :       0.2500    0.2500    0.1500
  band No.  band energies     occupation 
      1      -1.8552      2.00000
      2       2.5378      2.00000
      3       2.5378      2.00000
      4       4.2376      2.00000
      5       6.8117      2.00000
      6       8.4672     -0.00265
      7       8.4672     -0.00265
      8       9.5812      0.00000
      9      11.2139      0.00000
     10      11.2139      0.00000

 k-point  21 :       0.3500    0.2500    0.1500
  band No.  band energies     occupation 
      1      -1.3200      2.00000
      2       1.3249      2.00000
      3       3.0569      2.00000
      4       4.7415      2.00000
      5       5.6450      2.00000
      6       7.3013      2.00002
      7       8.9750      0.00000
      8      10.0803      0.00000
      9      11.4761      0.00000
     10      11.6699      0.00000

 k-point  22 :       0.4500    0.2500    0.1500
  band No.  band energies     occupation 
      1      -0.6096      2.00000
      2       0.2733      2.00000
      3       3.7452      2.00000
      4       4.5928      2.00000
      5       5.4537      2.00000
      6       6.2920      2.00000
      7       9.6467      0.00000
      8      10.4813      0.00000
      9      10.7378      0.00000
     10      11.5203      0.00000

 k-point  23 :       0.3500    0.3500    0.1500
  band No.  band energies     occupation 
      1      -0.7868      2.00000
      2       1.8485      2.00000
      3       1.8485      2.00000
      4       4.4268      2.00000
      5       5.2838      2.00000
      6       7.8087      1.99138
      7       7.8087      1.99138
      8      10.3211      0.00000
      9      10.5838      0.00000
     10      12.9913      0.00000

 k-point  24 :       0.4500    0.3500    0.1500
  band No.  band energies     occupation 
      1      -0.0790      2.00000
      2       0.8009      2.00000
      3       2.5439      2.00000
      4       3.4072      2.00000
      5       5.9544      2.00000
      6       6.7996      2.00000
      7       8.4826     -0.00187
      8       9.3210      0.00000
      9      11.2460      0.00000
     10      12.0595      0.00000

 k-point  25 :       0.4500    0.4500    0.1500
  band No.  band energies     occupation 
      1       0.6255      2.00000
      2       1.5013      2.00000
      3       1.5013      2.00000
      4       2.3718      2.00000
      5       6.6314      2.00000
      6       7.4754      2.00243
      7       7.4754      2.00243
      8       8.3171     -0.03546
      9      11.9079      0.00000
     10      12.7221      0.00000

 k-point  26 :       0.2500    0.2500    0.2500
  band No.  band energies     occupation 
      1      -1.4983      2.00000
      2       2.8836      2.00000
      3       2.8836      2.00000
      4       2.8836      2.00000
      5       7.1530      2.00000
      6       7.1530      2.00000
      7       7.1530      2.00000
      8      11.3317      0.00000
      9      11.5499      0.00000
     10      11.5499      0.00000

 k-point  27 :       0.3500    0.2500    0.2500
  band No.  band energies     occupation 
      1      -0.9643      2.00000
      2       1.6742      2.00000
      3       3.4013      2.00000
      4       3.4013      2.00000
      5       5.9778      2.00000
      6       5.9778      2.00000
      7       7.6614      2.04991
      8      10.1766      0.00000
      9      12.0403      0.00000
     10      12.0403      0.00000

 k-point  28 :       0.4500    0.2500    0.2500
  band No.  band energies     occupation 
      1      -0.2556      2.00000
      2       0.6251      2.00000
      3       4.0815      2.00000
      4       4.0815      2.00000
      5       4.9661      2.00000
      6       4.9661      2.00000
      7       8.3363     -0.02770
      8       9.1760      0.00000
      9      12.6614      0.00000
     10      12.6614      0.00000

 k-point  29 :       0.3500    0.3500    0.2500
  band No.  band energies     occupation 
      1      -0.4324      2.00000
      2       2.1965      2.00000
      3       2.1965      2.00000
      4       3.9105      2.00000
      5       4.7998      2.00000
      6       6.4868      2.00000
      7       6.4868      2.00000
      8       9.0149      0.00000
      9      12.5385      0.00000
     10      14.1440      0.00000

 k-point  30 :       0.4500    0.3500    0.2500
  band No.  band energies     occupation 
      1       0.2738      2.00000
      2       1.1515      2.00000
      3       2.8898      2.00000
      4       3.7452      2.00000
      5       4.6235      2.00000
      6       5.4700      2.00000
      7       7.1647      2.00000
      8       8.0088      0.70479
      9      13.1852      0.00000
     10      13.9574      0.00000

 k-point  31 :       0.4500    0.4500    0.2500
  band No.  band energies     occupation 
      1       0.9765      2.00000
      2       1.8503      2.00000
      3       1.8503      2.00000
      4       2.7182      2.00000
      5       5.3001      2.00000
      6       6.1502      2.00000
      7       6.1502      2.00000
      8       6.9978      2.00000
      9      13.8353      0.00000
     10      14.6211      0.00000

 k-point  32 :       0.3500    0.3500    0.3500
  band No.  band energies     occupation 
      1       0.0977      2.00000
      2       2.7171      2.00000
      3       2.7171      2.00000
      4       2.7171      2.00000
      5       5.3050      2.00000
      6       5.3050      2.00000
      7       5.3050      2.00000
      8       7.8467      1.86843
      9      14.6446      0.00000
     10      14.6446      0.00000

 k-point  33 :       0.4500    0.3500    0.3500
  band No.  band energies     occupation 
      1       0.8013      2.00000
      2       1.6760      2.00000
      3       3.4028      2.00000
      4       3.4028      2.00000
      5       4.2860      2.00000
      6       4.2860      2.00000
      7       5.9859      2.00000
      8       6.8345      2.00000
      9      15.2560      0.00000
     10      15.2560      0.00000

 k-point  34 :       0.4500    0.4500    0.3500
  band No.  band energies     occupation 
      1       1.5015      2.00000
      2       2.3723      2.00000
      3       2.3723      2.00000
      4       3.2329      2.00000
      5       4.1142      2.00000
      6       4.9651      2.00000
      7       4.9651      2.00000
      8       5.8172      2.00000
      9      15.8899      0.00000
     10      16.5940      0.00000

 k-point  35 :       0.4500    0.4500    0.4500
  band No.  band energies     occupation 
      1       2.1982      2.00000
      2       3.0611      2.00000
      3       3.0611      2.00000
      4       3.0611      2.00000
      5       3.9428      2.00000
      6       3.9428      2.00000
      7       3.9428      2.00000
      8       4.7950      2.00000
      9      17.9612      0.00000
     10      17.9616      0.00000


--------------------------------------------------------------------------------------------------------


 soft charge-density along one line, spin component           1
         0         1         2         3         4         5         6         7         8         9
 total charge-density along one line
 
 pseudopotential strength for first ion, spin component:           1
  8.547   0.000  -0.006   0.000   0.000   0.000   0.000   0.000   0.000   0.000   0.000   0.000   0.000   0.000   0.000   0.000
 -0.006   0.000   0.000   0.000   0.000   0.000   0.000   0.000   0.000   0.000   0.000   0.000   0.000   0.000   0.000   0.000
  0.000   0.000   0.000   0.000   2.015   0.000   0.000   0.000   0.000   0.000  -0.026   0.000   0.000   0.000   0.000   0.000
  0.000   0.000   0.000   0.000   0.000   0.000   2.015   0.000   0.000   0.000   0.000   0.000  -0.026   0.000   0.000   0.000
  0.000   0.000   0.000   0.000   0.000   0.000   0.000   0.000   2.015   0.000   0.000   0.000   0.000   0.000  -0.026   0.000
  0.000   0.000   0.000   0.000  -0.026   0.000   0.000   0.000   0.000   0.000  -0.012   0.000   0.000   0.000   0.000   0.000
  0.000   0.000   0.000   0.000   0.000   0.000  -0.026   0.000   0.000   0.000   0.000   0.000  -0.012   0.000   0.000   0.000
  0.000   0.000   0.000   0.000   0.000   0.000   0.000   0.000  -0.026   0.000   0.000   0.000   0.000   0.000  -0.012   0.000
 total augmentation occupancy for first ion, spin component:           1
  1.330  -0.684   0.000   0.000   0.000   0.000   0.000   0.000
 -0.684   0.626   0.000   0.000   0.000   0.000   0.000   0.000
  0.000   0.000   0.718   0.000   0.000  -0.217   0.000   0.000
  0.000   0.000   0.000   0.718   0.000   0.000  -0.217   0.000
  0.000   0.000   0.000   0.000   0.718   0.000   0.000  -0.217
  0.000   0.000  -0.217   0.000   0.000   0.071   0.000   0.000
  0.000   0.000   0.000  -0.217   0.000   0.000   0.071   0.000
  0.000   0.000   0.000   0.000  -0.217   0.000   0.000   0.071


------------------------ aborting loop because EDIFF is reached ----------------------------------------


    CHARGE:  cpu time    0.03: real time    0.04
    FORLOC:  cpu time    0.00: real time    0.01
    FORNL :  cpu time    0.06: real time    0.06
    STRESS:  cpu time    0.23: real time    0.24
    FORCOR:  cpu time    0.04: real time    0.05
    FORHAR:  cpu time    0.01: real time    0.02
    MIXING:  cpu time    0.00: real time    0.00
    FORVDW:  cpu time    0.00: real time    0.01

  FORCE on cell =-STRESS in cart. coord.  units (eV):
  Direction    XX          YY          ZZ          XY          YZ          ZX
  --------------------------------------------------------------------------------------
  Alpha Z    -0.61331    -0.61331    -0.61331
  Ewald     -97.80899   -97.80899   -97.80899     0.00000     0.00000     0.00000
  Hartree     0.13948     0.13948     0.13948     0.00000     0.00000     0.00000
  E(xc)     -34.56541   -34.56541   -34.56541     0.00000     0.00000     0.00000
  Local       0.73895     0.73895     0.73895     0.00000     0.00000     0.00000
  n-local    75.25572    75.94874    77.82641     0.34143     0.96520     0.50483
  augment    -4.10363    -4.10363    -4.10363     0.00000     0.00000     0.00000
  Kinetic    56.43497    59.35769    63.51970     1.15288    -8.23154    -2.29312
  Fock        0.00000     0.00000     0.00000     0.00000     0.00000     0.00000
  -------------------------------------------------------------------------------------
  Total      -0.09849    -0.09849    -0.09849     0.00000     0.00000     0.00000
  in kB      -2.37540    -2.37540    -2.37540     0.00000     0.00000     0.00000
  external pressure =       -2.38 kB  Pullay stress =        0.00 kB


 VOLUME and BASIS-vectors are now :
 -----------------------------------------------------------------------------
  energy-cutoff  :      240.44
  volume of cell :       66.43
      direct lattice vectors                 reciprocal lattice vectors
     4.050000000  0.000000000  0.000000000     0.246913580  0.000000000  0.000000000
     0.000000000  4.050000000  0.000000000     0.000000000  0.246913580  0.000000000
     0.000000000  0.000000000  4.050000000     0.000000000  0.000000000  0.246913580

  length of vectors
     4.050000000  4.050000000  4.050000000     0.246913580  0.246913580  0.246913580


 FORCES acting on ions
    electron-ion (+dipol)            ewald-force                    non-local-force                 convergence-correction
 -----------------------------------------------------------------------------------------------
   -.273E-14 0.716E-15 -.152E-15   -.537E-15 0.393E-15 -.297E-16   0.000E+00 -.103E-24 0.517E-25   -.188E-17 0.273E-17 0.178E-18
   -.276E-14 -.173E-14 -.356E-14   -.498E-15 -.237E-16 0.302E-15   0.452E-25 0.323E-25 0.207E-24   -.561E-18 0.562E-17 -.160E-18
   -.496E-14 0.153E-14 -.342E-14   0.413E-15 0.538E-16 0.307E-15   -.207E-24 -.174E-24 -.672E-24   0.153E-17 -.595E-17 -.591E-18
   -.265E-14 -.127E-14 -.114E-14   0.452E-15 -.363E-15 -.696E-15   -.145E-24 0.207E-24 -.103E-24   0.428E-17 -.131E-17 -.425E-18
 -----------------------------------------------------------------------------------------------
   -.131E-13 -.749E-15 -.828E-14   -.169E-15 0.601E-16 -.116E-15   -.307E-24 -.388E-25 -.517E-24   0.338E-17 0.109E-17 -.998E-18
 
 
 POSITION                                       TOTAL-FORCE (eV/Angst)
 -----------------------------------------------------------------------------------
      0.00000      0.00000      0.00000         0.000000      0.000000      0.000000
      0.00000      2.02500      2.02500         0.000000      0.000000      0.000000
      2.02500      0.00000      2.02500         0.000000      0.000000      0.000000
      2.02500      2.02500      0.00000         0.000000      0.000000      0.000000
 -----------------------------------------------------------------------------------
    total drift:                                0.000000      0.000000      0.000000


--------------------------------------------------------------------------------------------------------



  FREE ENERGIE OF THE ION-ELECTRON SYSTEM (eV)
  ---------------------------------------------------
  free  energy   TOTEN  =       -14.75855159 eV

  energy  without entropy=      -14.75753777  energy(sigma->0) =      -14.75821365
 


--------------------------------------------------------------------------------------------------------


    POTLOK:  cpu time    0.04: real time    0.06


--------------------------------------------------------------------------------------------------------




--------------------------------------------------------------------------------------------------------


    WAVPRE:  cpu time    0.01: real time    0.02
 FEWALD executed in parallel
    FEWALD:  cpu time    0.00: real time    0.00
    GENKIN:  cpu time    0.01: real time    0.01
    ORTHCH:  cpu time    0.02: real time    0.02
     LOOP+:  cpu time    4.71: real time    5.23


----------------------------------------- Iteration    2(   1)  ---------------------------------------


    POTLOK:  cpu time    0.03: real time    0.03
    SETDIJ:  cpu time    0.01: real time    0.01
     EDDAV:  cpu time    0.37: real time    0.37
       DOS:  cpu time    0.00: real time    0.00
    CHARGE:  cpu time    0.03: real time    0.03
    MIXING:  cpu time    0.00: real time    0.00
    --------------------------------------------
      LOOP:  cpu time    0.44: real time    0.45

 eigenvalue-minimisations  :   796
 total energy-change (2. order) :-0.1765791E-03  (-0.2403023E-03)
 number of electron      11.9999991 magnetization 
 augmentation part       -0.1562253 magnetization 

 Broyden mixing:
  rms(total) = 0.24205E-02    rms(broyden)= 0.24205E-02
  rms(prec ) = 0.59908E-02
  weight for this iteration     100.00

 Free energy of the ion-electron system (eV)
  ---------------------------------------------------
  alpha Z        PSCENC =        -0.61549723
  Ewald energy   TEWEN  =      -293.77580110
  -1/2 Hartree   DENC   =        -0.41893893
  -exchange  EXHF       =         0.00000000
  -V(xc)+E(xc)   XCENC  =      -105.16136567
  PAW double counting   =       143.58499366      -15.45248462
  entropy T*S    EENTRO =        -0.00097758
  eigenvalues    EBANDS =        42.32931504
  atomic energy  EATOM  =       214.75202816
  ---------------------------------------------------
  free energy    TOTEN  =       -14.75872829 eV

  energy without entropy =      -14.75775071  energy(sigma->0) =      -14.75840243


--------------------------------------------------------------------------------------------------------




----------------------------------------- Iteration    2(   2)  ---------------------------------------


    POTLOK:  cpu time    0.04: real time    0.04
    SETDIJ:  cpu time    0.01: real time    0.01
     EDDAV:  cpu time    0.35: real time    0.35
       DOS:  cpu time    0.00: real time    0.00
    CHARGE:  cpu time    0.03: real time    0.03
    MIXING:  cpu time    0.00: real time    0.00
    --------------------------------------------
      LOOP:  cpu time    0.42: real time    0.43

 eigenvalue-minimisations  :   786
 total energy-change (2. order) : 0.7202176E-05  (-0.1861240E-05)
 number of electron      11.9999991 magnetization 
 augmentation part       -0.1563629 magnetization 

 Broyden mixing:
  rms(total) = 0.15318E-02    rms(broyden)= 0.15318E-02
  rms(prec ) = 0.37934E-02
  weight for this iteration     100.00

 eigenvalues of (default mixing * dielectric matrix)
  average eigenvalue GAMMA=   2.6887
  2.6887

 Free energy of the ion-electron system (eV)
  ---------------------------------------------------
  alpha Z        PSCENC =        -0.61549723
  Ewald energy   TEWEN  =      -293.77580110
  -1/2 Hartree   DENC   =        -0.41933363
  -exchange  EXHF       =         0.00000000
  -V(xc)+E(xc)   XCENC  =      -105.15900801
  PAW double counting   =       143.60239823      -15.47070114
  entropy T*S    EENTRO =        -0.00097993
  eigenvalues    EBANDS =        42.32817357
  atomic energy  EATOM  =       214.75202816
  ---------------------------------------------------
  free energy    TOTEN  =       -14.75872108 eV

  energy without entropy =      -14.75774116  energy(sigma->0) =      -14.75839444


--------------------------------------------------------------------------------------------------------




----------------------------------------- Iteration    2(   3)  ---------------------------------------


    POTLOK:  cpu time    0.03: real time    0.03
    SETDIJ:  cpu time    0.01: real time    0.01
     EDDAV:  cpu time    0.33: real time    0.33
       DOS:  cpu time    0.00: real time    0.00
    CHARGE:  cpu time    0.03: real time    0.03
    MIXING:  cpu time    0.00: real time    0.00
    --------------------------------------------
      LOOP:  cpu time    0.40: real time    0.41

 eigenvalue-minimisations  :   716
 total energy-change (2. order) : 0.4788859E-05  (-0.3710596E-06)
 number of electron      11.9999991 magnetization 
 augmentation part       -0.1564325 magnetization 

 Broyden mixing:
  rms(total) = 0.61807E-04    rms(broyden)= 0.61796E-04
  rms(prec ) = 0.10803E-03
  weight for this iteration     100.00

 eigenvalues of (default mixing * dielectric matrix)
  average eigenvalue GAMMA=   1.8839
  1.0856  2.6822

 Free energy of the ion-electron system (eV)
  ---------------------------------------------------
  alpha Z        PSCENC =        -0.61549723
  Ewald energy   TEWEN  =      -293.77580110
  -1/2 Hartree   DENC   =        -0.42005033
  -exchange  EXHF       =         0.00000000
  -V(xc)+E(xc)   XCENC  =      -105.15500388
  PAW double counting   =       143.62628919      -15.49591196
  entropy T*S    EENTRO =        -0.00098396
  eigenvalues    EBANDS =        42.32621482
  atomic energy  EATOM  =       214.75202816
  ---------------------------------------------------
  free energy    TOTEN  =       -14.75871630 eV

  energy without entropy =      -14.75773233  energy(sigma->0) =      -14.75838831


--------------------------------------------------------------------------------------------------------




----------------------------------------- Iteration    2(   4)  ---------------------------------------


    POTLOK:  cpu time    0.03: real time    0.03
    SETDIJ:  cpu time    0.00: real time    0.00
     EDDAV:  cpu time    0.19: real time    0.19
       DOS:  cpu time    0.00: real time    0.00
    --------------------------------------------
      LOOP:  cpu time    0.23: real time    0.24

 eigenvalue-minimisations  :   362
 total energy-change (2. order) :-0.8245905E-08  (-0.2643597E-08)
 number of electron      11.9999991 magnetization 
 augmentation part       -0.1564325 magnetization 

 Free energy of the ion-electron system (eV)
  ---------------------------------------------------
  alpha Z        PSCENC =        -0.61549723
  Ewald energy   TEWEN  =      -293.77580110
  -1/2 Hartree   DENC   =        -0.42009683
  -exchange  EXHF       =         0.00000000
  -V(xc)+E(xc)   XCENC  =      -105.15498009
  PAW double counting   =       143.62553781      -15.49514409
  entropy T*S    EENTRO =        -0.00098394
  eigenvalues    EBANDS =        42.32622101
  atomic energy  EATOM  =       214.75202816
  ---------------------------------------------------
  free energy    TOTEN  =       -14.75871630 eV

  energy without entropy =      -14.75773237  energy(sigma->0) =      -14.75838832


--------------------------------------------------------------------------------------------------------




 average (electrostatic) potential at core
  the test charge radii are     1.0406
  (the norm of the test charge is              1.0000)
       1 -72.2541       2 -72.2541       3 -72.2541       4 -72.2541
 
 
 
 E-fermi :   8.0121     XC(G=0): -10.1987     alpha+bet :-14.8287


 k-point   1 :       0.0500    0.0500    0.0500
  band No.  band energies     occupation 
      1      -3.0993      2.00000
      2       4.6567      2.00000
      3       4.6567      2.00000
      4       4.6567      2.00000
      5       6.8424      2.00000
      6       6.8424      2.00000
      7       6.8424      2.00000
      8      12.1002      0.00000
      9      12.1002      0.00000
     10      12.1002      0.00000

 k-point   2 :       0.1500    0.0500    0.0500
  band No.  band energies     occupation 
      1      -2.9188      2.00000
      2       3.2362      2.00000
      3       4.8256      2.00000
      4       4.8256      2.00000
      5       7.0145      2.00000
      6       7.0145      2.00000
      7       8.5788     -0.00046
      8      10.6895      0.00000
      9      10.6895      0.00000
     10      12.2679      0.00000

 k-point   3 :       0.2500    0.0500    0.0500
  band No.  band energies     occupation 
      1      -2.5582      2.00000
      2       1.8671      2.00000
      3       5.1625      2.00000
      4       5.1625      2.00000
      5       7.3523      2.00003
      6       7.3523      2.00003
      7       9.3732      0.00000
      8       9.3732      0.00000
      9      10.5742      0.00000
     10      11.6063      0.00000

 k-point   4 :       0.3500    0.0500    0.0500
  band No.  band energies     occupation 
      1      -2.0190      2.00000
      2       0.6447      2.00000
      3       5.6666      2.00000
      4       5.6666      2.00000
      5       7.8092      2.05315
      6       7.8092      2.05315
      7       8.2522     -0.07073
      8       8.2522     -0.07073
      9      10.5050      0.00000
     10      10.5050      0.00000

 k-point   5 :       0.4500    0.0500    0.0500
[...]
      9      11.0425      0.00000
     10      11.0425      0.00000

 k-point  11 :       0.3500    0.2500    0.0500
  band No.  band energies     occupation 
      1      -1.4830      2.00000
      2       1.1705      2.00000
      3       2.9084      2.00000
      4       5.4687      2.00000
      5       6.1854      2.00000
      6       8.4280     -0.01169
      7       8.6883     -0.00002
      8      10.3571      0.00000
      9      10.8502      0.00000
     10      11.7108      0.00000

 k-point  12 :       0.4500    0.2500    0.0500
  band No.  band energies     occupation 
      1      -0.7701      2.00000
      2       0.1156      2.00000
      3       3.5996      2.00000
      4       4.4570      2.00000
      5       6.8493      2.00000
      6       7.6863      2.04476
      7       9.1013      0.00000
      8       9.9289      0.00000
      9      11.0266      0.00000
     10      11.8599      0.00000

 k-point  13 :       0.3500    0.3500    0.0500
  band No.  band energies     occupation 
      1      -0.9480      2.00000
      2       1.6957      2.00000
      3       1.6957      2.00000
      4       4.2902      2.00000
      5       6.6819      2.00000
      6       8.9384      0.00000
      7       9.1927      0.00000
      8       9.1927      0.00000
      9      11.4225      0.00000
     10      11.4225      0.00000

 k-point  14 :       0.4500    0.3500    0.0500
  band No.  band energies     occupation 
      1      -0.2378      2.00000
      2       0.6449      2.00000
      3       2.3935      2.00000
      4       3.2601      2.00000
      5       7.3524      2.00003
      6       8.1900     -0.02408
      7       9.6147      0.00000
      8       9.8628      0.00000
      9      10.4479      0.00000
     10      10.6982      0.00000

 k-point  15 :       0.4500    0.4500    0.0500
  band No.  band energies     occupation 
      1       0.4689      2.00000
      2       1.3476      2.00000
      3       1.3476      2.00000
      4       2.2209      2.00000
      5       8.0234      0.88068
      6       8.8606      0.00000
      7       8.8606      0.00000
      8       9.6971      0.00000
      9      10.2894      0.00000
     10      11.1199      0.00000

 k-point  16 :       0.1500    0.1500    0.1500
  band No.  band energies     occupation 
      1      -2.5592      2.00000
      2       3.5784      2.00000
      3       3.5784      2.00000
      4       3.5784      2.00000
      5       8.8719      0.00000
      6       8.8719      0.00000
      7       8.8719      0.00000
      8       9.5459      0.00000
      9       9.5459      0.00000
     10       9.5459      0.00000

 k-point  17 :       0.2500    0.1500    0.1500
  band No.  band energies     occupation 
      1      -2.1996      2.00000
      2       2.2136      2.00000
      3       3.9220      2.00000
      4       3.9220      2.00000
      5       8.1462      0.09127
      6       8.1462      0.09127
      7       9.2960      0.00000
      8       9.2960      0.00000
      9       9.8010      0.00000
     10      10.9403      0.00000

 k-point  18 :       0.3500    0.1500    0.1500
  band No.  band energies     occupation 
      1      -1.6618      2.00000
      2       0.9951      2.00000
      3       4.4352      2.00000
      4       4.4352      2.00000
      5       6.9926      2.00000
      6       6.9926      2.00000
      7       9.7757      0.00000
      8       9.7757      0.00000
      9      10.3195      0.00000
     10      12.2947      0.00000

 k-point  19 :       0.4500    0.1500    0.1500
  band No.  band energies     occupation 
      1      -0.9480      2.00000
      2      -0.0612      2.00000
      3       5.1083      2.00000
      4       5.1083      2.00000
      5       5.9913      2.00000
      6       5.9913      2.00000
      7      10.3922      0.00000
      8      10.3922      0.00000
      9      10.9904      0.00000
     10      11.3766      0.00000

 k-point  20 :       0.2500    0.2500    0.1500
  band No.  band energies     occupation 
      1      -1.8408      2.00000
      2       2.5612      2.00000
      3       2.5612      2.00000
      4       4.2640      2.00000
      5       6.8436      2.00000
      6       8.5020     -0.00272
      7       8.5020     -0.00272
      8       9.6212      0.00000
      9      11.2561      0.00000
     10      11.2561      0.00000

 k-point  21 :       0.3500    0.2500    0.1500
  band No.  band energies     occupation 
      1      -1.3044      2.00000
      2       1.3459      2.00000
      3       3.0813      2.00000
      4       4.7683      2.00000
      5       5.6756      2.00000
      6       7.3341      2.00002
      7       9.0110      0.00000
      8      10.1210      0.00000
      9      11.5172      0.00000
     10      11.7109      0.00000

 k-point  22 :       0.4500    0.2500    0.1500
  band No.  band energies     occupation 
      1      -0.5924      2.00000
      2       0.2922      2.00000
      3       3.7709      2.00000
      4       4.6194      2.00000
      5       5.4839      2.00000
      6       6.3231      2.00000
      7       9.6842      0.00000
      8      10.5204      0.00000
      9      10.7793      0.00000
     10      11.5612      0.00000

 k-point  23 :       0.3500    0.3500    0.1500
  band No.  band energies     occupation 
      1      -0.7701      2.00000
      2       1.8706      2.00000
      3       1.8706      2.00000
      4       4.4531      2.00000
      5       5.3137      2.00000
      6       7.8426      1.99628
      7       7.8426      1.99628
      8      10.3600      0.00000
      9      10.6256      0.00000
     10      13.0359      0.00000

 k-point  24 :       0.4500    0.3500    0.1500
  band No.  band energies     occupation 
      1      -0.0608      2.00000
      2       0.8209      2.00000
      3       2.5674      2.00000
      4       3.4322      2.00000
      5       5.9849      2.00000
      6       6.8316      2.00000
      7       8.5179     -0.00191
      8       9.3580      0.00000
      9      11.2891      0.00000
     10      12.1039      0.00000

 k-point  25 :       0.4500    0.4500    0.1500
  band No.  band energies     occupation 
      1       0.6451      2.00000
      2       1.5227      2.00000
      3       1.5227      2.00000
      4       2.3949      2.00000
      5       6.6632      2.00000
      6       7.5087      2.00229
      7       7.5087      2.00229
      8       8.3520     -0.03591
      9      11.9524      0.00000
     10      12.7683      0.00000

 k-point  26 :       0.2500    0.2500    0.2500
  band No.  band energies     occupation 
      1      -1.4831      2.00000
      2       2.9077      2.00000
      3       2.9077      2.00000
      4       2.9077      2.00000
      5       7.1857      2.00000
      6       7.1857      2.00000
      7       7.1857      2.00000
      8      11.3728      0.00000
      9      11.5930      0.00000
     10      11.5930      0.00000

 k-point  27 :       0.3500    0.2500    0.2500
  band No.  band energies     occupation 
      1      -0.9479      2.00000
      2       1.6959      2.00000
      3       3.4263      2.00000
      4       3.4263      2.00000
      5       6.0085      2.00000
      6       6.0085      2.00000
      7       7.6952      2.04889
      8      10.2154      0.00000
      9      12.0842      0.00000
     10      12.0842      0.00000

 k-point  28 :       0.4500    0.2500    0.2500
  band No.  band energies     occupation 
      1      -0.2378      2.00000
      2       0.6448      2.00000
      3       4.1072      2.00000
      4       4.1072      2.00000
      5       4.9956      2.00000
      6       4.9956      2.00000
      7       8.3715     -0.02801
      8       9.2129      0.00000
      9      12.7047      0.00000
     10      12.7047      0.00000

 k-point  29 :       0.3500    0.3500    0.2500
  band No.  band energies     occupation 
      1      -0.4149      2.00000
      2       2.2193      2.00000
      3       2.2193      2.00000
      4       3.9359      2.00000
      5       4.8290      2.00000
      6       6.5184      2.00000
      7       6.5184      2.00000
      8       9.0515      0.00000
      9      12.5838      0.00000
     10      14.1907      0.00000

 k-point  30 :       0.4500    0.3500    0.2500
  band No.  band energies     occupation 
      1       0.2927      2.00000
      2       1.1722      2.00000
      3       2.9139      2.00000
      4       3.7703      2.00000
      5       4.6523      2.00000
      6       5.4998      2.00000
      7       7.1977      2.00000
      8       8.0434      0.71571
      9      13.2316      0.00000
     10      14.0040      0.00000

 k-point  31 :       0.4500    0.4500    0.2500
  band No.  band energies     occupation 
      1       0.9969      2.00000
      2       1.8724      2.00000
      3       1.8724      2.00000
      4       2.7420      2.00000
      5       5.3296      2.00000
      6       6.1812      2.00000
      7       6.1812      2.00000
      8       7.0305      2.00000
      9      13.8833      0.00000
     10      14.6708      0.00000

 k-point  32 :       0.3500    0.3500    0.3500
  band No.  band energies     occupation 
      1       0.1162      2.00000
      2       2.7409      2.00000
      3       2.7409      2.00000
      4       2.7409      2.00000
      5       5.3345      2.00000
      6       5.3345      2.00000
      7       5.3345      2.00000
      8       7.8811      1.87503
      9      14.6939      0.00000
     10      14.6939      0.00000

 k-point  33 :       0.4500    0.3500    0.3500
  band No.  band energies     occupation 
      1       0.8213      2.00000
      2       1.6978      2.00000
      3       3.4273      2.00000
      4       3.4273      2.00000
      5       4.3142      2.00000
      6       4.3142      2.00000
      7       6.0167      2.00000
      8       6.8669      2.00000
      9      15.3057      0.00000
     10      15.3057      0.00000

 k-point  34 :       0.4500    0.4500    0.3500
  band No.  band energies     occupation 
      1       1.5230      2.00000
      2       2.3953      2.00000
      3       2.3953      2.00000
      4       3.2571      2.00000
      5       4.1420      2.00000
      6       4.9940      2.00000
      7       4.9940      2.00000
      8       5.8477      2.00000
      9      15.9420      0.00000
     10      16.6476      0.00000

 k-point  35 :       0.4500    0.4500    0.4500
  band No.  band energies     occupation 
      1       2.2210      2.00000
      2       3.0850      2.00000
      3       3.0850      2.00000
      4       3.0850      2.00000
      5       3.9702      2.00000
      6       3.9702      2.00000
      7       3.9702      2.00000
      8       4.8236      2.00000
      9      18.0177      0.00000
     10      18.0177      0.00000


--------------------------------------------------------------------------------------------------------


 soft charge-density along one line, spin component           1
         0         1         2         3         4         5         6         7         8         9
 total charge-density along one line
 
 pseudopotential strength for first ion, spin component:           1
  8.546   0.000  -0.006   0.000   0.000   0.000   0.000   0.000   0.000   0.000   0.000   0.000   0.000   0.000   0.000   0.000
 -0.006   0.000   0.000   0.000   0.000   0.000   0.000   0.000   0.000   0.000   0.000   0.000   0.000   0.000   0.000   0.000
  0.000   0.000   0.000   0.000   2.015   0.000   0.000   0.000   0.000   0.000  -0.027   0.000   0.000   0.000   0.000   0.000
  0.000   0.000   0.000   0.000   0.000   0.000   2.015   0.000   0.000   0.000   0.000   0.000  -0.027   0.000   0.000   0.000
  0.000   0.000   0.000   0.000   0.000   0.000   0.000   0.000   2.015   0.000   0.000   0.000   0.000   0.000  -0.027   0.000
  0.000   0.000   0.000   0.000  -0.027   0.000   0.000   0.000   0.000   0.000  -0.012   0.000   0.000   0.000   0.000   0.000
  0.000   0.000   0.000   0.000   0.000   0.000  -0.027   0.000   0.000   0.000   0.000   0.000  -0.012   0.000   0.000   0.000
  0.000   0.000   0.000   0.000   0.000   0.000   0.000   0.000  -0.027   0.000   0.000   0.000   0.000   0.000  -0.012   0.000
 total augmentation occupancy for first ion, spin component:           1
  1.329  -0.685   0.000   0.000   0.000   0.000   0.000   0.000
 -0.685   0.628   0.000   0.000   0.000   0.000   0.000   0.000
  0.000   0.000   0.721   0.000   0.000  -0.218   0.000   0.000
  0.000   0.000   0.000   0.721   0.000   0.000  -0.218   0.000
  0.000   0.000   0.000   0.000   0.721   0.000   0.000  -0.218
  0.000   0.000  -0.218   0.000   0.000   0.071   0.000   0.000
  0.000   0.000   0.000  -0.218   0.000   0.000   0.071   0.000
  0.000   0.000   0.000   0.000  -0.218   0.000   0.000   0.071


------------------------ aborting loop because EDIFF is reached ----------------------------------------


    CHARGE:  cpu time    0.03: real time    0.03
    FORLOC:  cpu time    0.00: real time    0.00
    FORNL :  cpu time    0.05: real time    0.05
    STRESS:  cpu time    0.23: real time    0.23
    FORCOR:  cpu time    0.04: real time    0.04
    FORHAR:  cpu time    0.01: real time    0.01
    MIXING:  cpu time    0.00: real time    0.00
    FORVDW:  cpu time    0.00: real time    0.00

  FORCE on cell =-STRESS in cart. coord.  units (eV):
  Direction    XX          YY          ZZ          XY          YZ          ZX
  --------------------------------------------------------------------------------------
  Alpha Z    -0.61534    -0.61534    -0.61534
  Ewald     -97.91699   -97.91699   -97.91699     0.00000     0.00000     0.00000
  Hartree     0.14002     0.14002     0.14002     0.00000     0.00000     0.00000
  E(xc)     -34.59964   -34.59964   -34.59964     0.00000     0.00000     0.00000
  Local       0.79844     0.79844     0.79844     0.00000     0.00000     0.00000
  n-local    75.29223    75.99179    77.89275     0.35293     0.98221     0.51501
  augment    -4.09533    -4.09533    -4.09533     0.00000     0.00000     0.00000
  Kinetic    56.55938    59.48563    63.64681     1.15872    -8.24578    -2.29392
  Fock        0.00000     0.00000     0.00000     0.00000     0.00000     0.00000
  -------------------------------------------------------------------------------------
  Total       0.00068     0.00068     0.00068     0.00000     0.00000     0.00000
  in kB       0.01640     0.01640     0.01640     0.00000     0.00000     0.00000
  external pressure =        0.02 kB  Pullay stress =        0.00 kB


 VOLUME and BASIS-vectors are now :
 -----------------------------------------------------------------------------
  energy-cutoff  :      240.44
  volume of cell :       66.21
      direct lattice vectors                 reciprocal lattice vectors
     4.045532964  0.000000000  0.000000000     0.247186220  0.000000000  0.000000000
     0.000000000  4.045532964  0.000000000     0.000000000  0.247186220  0.000000000
     0.000000000  0.000000000  4.045532964     0.000000000  0.000000000  0.247186220

  length of vectors
     4.045532964  4.045532964  4.045532964     0.247186220  0.247186220  0.247186220


 FORCES acting on ions
    electron-ion (+dipol)            ewald-force                    non-local-force                 convergence-correction
 -----------------------------------------------------------------------------------------------
   -.412E-14 -.117E-14 -.186E-14   0.126E-14 0.258E-15 -.101E-14   0.827E-24 -.400E-27 -.258E-25   -.212E-17 0.105E-16 -.382E-18
   -.350E-14 -.132E-14 -.478E-14   0.129E-14 0.280E-15 0.345E-15   -.349E-26 -.534E-25 0.000E+00   -.183E-17 0.630E-17 0.443E-18
   -.532E-14 0.350E-16 -.438E-14   -.123E-14 -.240E-15 0.356E-15   0.252E-26 0.169E-26 0.000E+00   -.981E-18 0.240E-17 -.416E-19
   -.396E-14 -.312E-14 -.705E-15   -.120E-14 -.218E-15 0.377E-15   0.957E-27 -.362E-24 -.258E-25   -.228E-17 -.227E-17 -.842E-18
 -----------------------------------------------------------------------------------------------
   -.169E-13 -.558E-14 -.117E-13   0.119E-15 0.790E-16 0.638E-16   0.827E-24 -.414E-24 -.517E-25   -.721E-17 0.170E-16 -.823E-18
 
 
 POSITION                                       TOTAL-FORCE (eV/Angst)
 -----------------------------------------------------------------------------------
      0.00000      0.00000      0.00000         0.000000      0.000000      0.000000
      0.00000      2.02277      2.02277         0.000000      0.000000      0.000000
      2.02277      0.00000      2.02277         0.000000      0.000000      0.000000
      2.02277      2.02277      0.00000         0.000000      0.000000      0.000000
 -----------------------------------------------------------------------------------
    total drift:                                0.000000      0.000000      0.000000


--------------------------------------------------------------------------------------------------------



  FREE ENERGIE OF THE ION-ELECTRON SYSTEM (eV)
  ---------------------------------------------------
  free  energy   TOTEN  =       -14.75871730 eV

  energy  without entropy=      -14.75773092  energy(sigma->0) =      -14.75838850
 
 d Force = 0.0000000E+00[ 0.000E+00, 0.000E+00]  d Energy = 0.9931868E-06-0.993E-06
 d Force = 0.0000000E+00[ 0.000E+00, 0.000E+00]  d Ewald  =-0.2496326E-01 0.250E-01


--------------------------------------------------------------------------------------------------------


    POTLOK:  cpu time    0.04: real time    0.04


--------------------------------------------------------------------------------------------------------




--------------------------------------------------------------------------------------------------------


  
 reached required accuracy - stopping structural energy minimisation
 writing wavefunctions
     LOOP+:  cpu time    1.09: real time    1.11
    4ORBIT:  cpu time    0.00: real time    0.01

 ----------------------------------------------------------------------------- 
|                                                                             |
|           W    W    AA    RRRRR   N    N  II  N    N   GGGG   !!!           |
|           W    W   A  A   R    R  NN   N  II  NN   N  G    G  !!!           |
|           W    W  A    A  R    R  N N  N  II  N N  N  G       !!!           |
|           W WW W  AAAAAA  RRRRR   N  N N  II  N  N N  G  GGG   !            |
|           WW  WW  A    A  R   R   N   NN  II  N   NN  G    G                |
|           W    W  A    A  R    R  N    N  II  N    N   GGGG   !!!           |
|                                                                             |
|      The partial DOS and the PROCAR file are not evaluated for NPAR/=1      |
|      please rerun with NPAR=1                                               |
|                                                                             |
 ----------------------------------------------------------------------------- 


 total amount of memory used by VASP on root node    35630. kBytes
========================================================================

   base      :      30000. kBytes
   nonl-proj :       1336. kBytes
   fftplans  :       1128. kBytes
   grid      :       1441. kBytes
   one-center:         12. kBytes
   wavefun   :       1713. kBytes
 
  
  
 General timing and accounting informations for this job:
 ========================================================
  
                  Total CPU time used (sec):        8.455
                            User time (sec):        7.995
                          System time (sec):        0.460
                         Elapsed time (sec):       10.475
  
                   Maximum memory used (kb):       44504.
                   Average memory used (kb):           0.
  
                          Minor page faults:        18505
                          Major page faults:           14
                 Voluntary context switches:         2652
