<?xml version="1.0" encoding="ISO-8859-1"?>
<modeling>
 <generator>
  <i name="program" type="string">vasp </i>
  <i name="version" type="string">5.3.2  </i>
  <i name="subversion" type="string">13Sep12 (build Jun 30 2016 14:08:18) complex                          parallel </i>
  <i name="platform" type="string">LinuxIFC </i>
  <i name="date" type="string">2017 10 16 </i>
  <i name="time" type="string">15:54:04 </i>
 </generator>
 <incar>
  <i type="string" name="SYSTEM"> bcc Al</i>
  <i type="string" name="PREC">normal</i>
  <i type="int" name="IBRION">     2</i>
  <i name="EDIFF">      0.00000100</i>
  <i type="int" name="NSW">    50</i>
  <i type="int" name="ISIF">     3</i>
  <v name="RWIGS">      1.40200000</v>
 </incar>
 <kpoints>
  <generation param="Monkhorst-Pack">
   <v type="int" name="divisions">      10       10       10 </v>
   <v name="usershift">      0.00000000       0.00000000       0.00000000 </v>
   <v name="genvec1">      0.10000000       0.00000000       0.00000000 </v>
   <v name="genvec2">      0.00000000       0.10000000       0.00000000 </v>
   <v name="genvec3">      0.00000000       0.00000000       0.10000000 </v>
   <v name="shift">      0.50000000       0.50000000       0.50000000 </v>
  </generation>
  <varray name="kpointlist" >
   <v>       0.05000000       0.05000000       0.05000000 </v>
   <v>       0.15000000       0.05000000       0.05000000 </v>
   <v>       0.25000000       0.05000000       0.05000000 </v>
   <v>       0.35000000       0.05000000       0.05000000 </v>
   <v>       0.45000000       0.05000000       0.05000000 </v>
   <v>       0.15000000       0.15000000       0.05000000 </v>
   <v>       0.25000000       0.15000000       0.05000000 </v>
   <v>       0.35000000       0.15000000       0.05000000 </v>
   <v>       0.45000000       0.15000000       0.05000000 </v>
   <v>       0.25000000       0.25000000       0.05000000 </v>
   <v>       0.35000000       0.25000000       0.05000000 </v>
   <v>       0.45000000       0.25000000       0.05000000 </v>
   <v>       0.35000000       0.35000000       0.05000000 </v>
   <v>       0.45000000       0.35000000       0.05000000 </v>
   <v>       0.45000000       0.45000000       0.05000000 </v>
   <v>       0.15000000       0.15000000       0.15000000 </v>
   <v>       0.25000000       0.15000000       0.15000000 </v>
   <v>       0.35000000       0.15000000       0.15000000 </v>
   <v>       0.45000000       0.15000000       0.15000000 </v>
   <v>       0.25000000       0.25000000       0.15000000 </v>
   <v>       0.35000000       0.25000000       0.15000000 </v>
   <v>       0.45000000       0.25000000       0.15000000 </v>
   <v>       0.35000000       0.35000000       0.15000000 </v>
   <v>       0.45000000       0.35000000       0.15000000 </v>
   <v>       0.45000000       0.45000000       0.15000000 </v>
   <v>       0.25000000       0.25000000       0.25000000 </v>
   <v>       0.35000000       0.25000000       0.25000000 </v>
   <v>       0.45000000       0.25000000       0.25000000 </v>
   <v>       0.35000000       0.35000000       0.25000000 </v>
   <v>       0.45000000       0.35000000       0.25000000 </v>
   <v>       0.45000000       0.45000000       0.25000000 </v>
   <v>       0.35000000       0.35000000       0.35000000 </v>
   <v>       0.45000000       0.35000000       0.35000000 </v>
   <v>       0.45000000       0.45000000       0.35000000 </v>
   <v>       0.45000000       0.45000000       0.45000000 </v>
  </varray>
  <varray name="weights" >
   <v>       0.00800000 </v>
   <v>       0.02400000 </v>
   <v>       0.02400000 </v>
   <v>       0.02400000 </v>
   <v>       0.02400000 </v>
   <v>       0.02400000 </v>
   <v>       0.04800000 </v>
   <v>       0.04800000 </v>
   <v>       0.04800000 </v>
   <v>       0.02400000 </v>
   <v>       0.04800000 </v>
   <v>       0.04800000 </v>
   <v>       0.02400000 </v>
   <v>       0.04800000 </v>
   <v>       0.02400000 </v>
   <v>       0.00800000 </v>
   <v>       0.02400000 </v>
   <v>       0.02400000 </v>
   <v>       0.02400000 </v>
   <v>       0.02400000 </v>
   <v>       0.04800000 </v>
   <v>       0.04800000 </v>
   <v>       0.02400000 </v>
   <v>       0.04800000 </v>
   <v>       0.02400000 </v>
   <v>       0.00800000 </v>
   <v>       0.02400000 </v>
   <v>       0.02400000 </v>
   <v>       0.02400000 </v>
   <v>       0.04800000 </v>
   <v>       0.02400000 </v>
   <v>       0.00800000 </v>
   <v>       0.02400000 </v>
   <v>       0.02400000 </v>
   <v>       0.00800000 </v>
  </varray>
 </kpoints>
 <parameters>
  <separator name="general" >
   <i type="string" name="SYSTEM">bcc Al</i>
   <i type="logical" name="LCOMPAT"> F  </i>
  </separator>
  <separator name="electronic" >
   <i type="string" name="PREC">normal</i>
   <i name="ENMAX">    240.43700000</i>
   <i name="ENAUG">    291.05200000</i>
   <i name="EDIFF">      0.00000100</i>
   <i type="int" name="IALGO">    38</i>
   <i type="int" name="IWAVPR">    11</i>
   <i type="int" name="NBANDS">    10</i>
   <i name="NELECT">     12.00000000</i>
   <i type="int" name="TURBO">     0</i>
   <i type="int" name="IRESTART">     0</i>
   <i type="int" name="NREBOOT">     0</i>
   <i type="int" name="NMIN">     0</i>
   <i name="EREF">      0.00000000</i>
   <separator name="electronic smearing" >
    <i type="int" name="ISMEAR">     1</i>
    <i name="SIGMA">      0.20000000</i>
    <i name="KSPACING">      0.50000000</i>
    <i type="logical" name="KGAMMA"> T  </i>
   </separator>
   <separator name="electronic projectors" >
    <i type="logical" name="LREAL"> F  </i>
    <v name="ROPT">      0.00000000</v>
    <i type="int" name="LMAXPAW">  -100</i>
    <i type="int" name="LMAXMIX">     2</i>
    <i type="logical" name="NLSPLINE"> F  </i>
   </separator>
   <separator name="electronic startup" >
    <i type="int" name="ISTART">     0</i>
    <i type="int" name="ICHARG">     2</i>
    <i type="int" name="INIWAV">     1</i>
   </separator>
   <separator name="electronic spin" >
    <i type="int" name="ISPIN">     1</i>
    <i type="logical" name="LNONCOLLINEAR"> F  </i>
    <v name="MAGMOM">      1.00000000      1.00000000      1.00000000      1.00000000</v>
    <i name="NUPDOWN">     -1.00000000</i>
    <i type="logical" name="LSORBIT"> F  </i>
    <v name="SAXIS">      0.00000000      0.00000000      1.00000000</v>
    <i type="logical" name="LSPIRAL"> F  </i>
    <v name="QSPIRAL">      0.00000000      0.00000000      0.00000000</v>
    <i type="logical" name="LZEROZ"> F  </i>
   </separator>
   <separator name="electronic exchange-correlation" >
    <i type="logical" name="LASPH"> F  </i>
    <i type="logical" name="LMETAGGA"> F  </i>
   </separator>
   <separator name="electronic convergence" >
    <i type="int" name="NELM">    60</i>
    <i type="int" name="NELMDL">    -5</i>
    <i type="int" name="NELMIN">     2</i>
    <i name="ENINI">    240.43700000</i>
    <separator name="electronic convergence detail" >
     <i type="logical" name="LDIAG"> T  </i>
     <i type="logical" name="LSUBROT"> T  </i>
     <i name="WEIMIN">      0.00100000</i>
     <i name="EBREAK">      0.00000002</i>
     <i name="DEPER">      0.30000000</i>
     <i type="int" name="NRMM">     4</i>
     <i name="TIME">      0.40000000</i>
    </separator>
   </separator>
   <separator name="electronic mixer" >
    <i name="AMIX">      0.40000000</i>
    <i name="BMIX">      1.00000000</i>
    <i name="AMIN">      0.10000000</i>
    <i name="AMIX_MAG">      1.60000000</i>
    <i name="BMIX_MAG">      1.00000000</i>
    <separator name="electronic mixer details" >
     <i type="int" name="IMIX">     4</i>
     <i type="int" name="MAXMIX">   -45</i>
     <i name="WC">    100.00000000</i>
     <i type="int" name="INIMIX">     1</i>
     <i type="int" name="MIXPRE">     1</i>
     <i type="int" name="MREMOVE">     5</i>
    </separator>
   </separator>
   <separator name="electronic dipolcorrection" >
    <i type="logical" name="LDIPOL"> F  </i>
    <i type="logical" name="LMONO"> F  </i>
    <i type="int" name="IDIPOL">     0</i>
    <i name="EPSILON">      1.00000000</i>
    <v name="DIPOL">   -100.00000000   -100.00000000   -100.00000000</v>
    <i name="EFIELD">      0.00000000</i>
   </separator>
  </separator>
  <separator name="grids" >
   <i type="int" name="NGX">    16</i>
   <i type="int" name="NGY">    16</i>
   <i type="int" name="NGZ">    16</i>
   <i type="int" name="NGXF">    32</i>
   <i type="int" name="NGYF">    32</i>
   <i type="int" name="NGZF">    32</i>
   <i type="logical" name="ADDGRID"> F  </i>
  </separator>
  <separator name="ionic" >
   <i type="int" name="NSW">    50</i>
   <i type="int" name="IBRION">     2</i>
   <i type="int" name="ISIF">     3</i>
   <i name="PSTRESS">      0.00000000</i>
   <i name="EDIFFG">      0.00001000</i>
   <i type="int" name="NFREE">     1</i>
   <i name="POTIM">      0.50000000</i>
   <i name="SMASS">     -3.00000000</i>
   <i name="SCALEE">      1.00000000</i>
  </separator>
  <separator name="ionic md" >
   <i name="TEBEG">      0.00010000</i>
   <i name="TEEND">      0.00010000</i>
   <i type="int" name="NBLOCK">     1</i>
   <i type="int" name="KBLOCK">    50</i>
   <i type="int" name="NPACO">   256</i>
   <i name="APACO">     16.00000000</i>
  </separator>
  <separator name="symmetry" >
   <i type="int" name="ISYM">     2</i>
   <i name="SYMPREC">      0.00001000</i>
  </separator>
  <separator name="dos" >
   <i type="logical" name="LORBIT"> F  </i>
   <v name="RWIGS">      1.40200000</v>
   <i type="int" name="NEDOS">   301</i>
   <i name="EMIN">     10.00000000</i>
   <i name="EMAX">    -10.00000000</i>
   <i name="EFERMI">      0.00000000</i>
  </separator>
  <separator name="writing" >
   <i type="int" name="NWRITE">     2</i>
   <i type="logical" name="LWAVE"> T  </i>
   <i type="logical" name="LCHARG"> T  </i>
   <i type="logical" name="LPARD"> F  </i>
   <i type="logical" name="LVTOT"> F  </i>
   <i type="logical" name="LVHAR"> F  </i>
   <i type="logical" name="LELF"> F  </i>
   <i type="logical" name="LOPTICS"> F  </i>
   <v name="STM">      0.00000000      0.00000000      0.00000000      0.00000000      0.00000000      0.00000000      0.00000000</v>
  </separator>
  <separator name="performance" >
   <i type="int" name="NPAR">     2</i>
   <i type="int" name="NSIM">     4</i>
   <i type="int" name="NBLK">    -1</i>
   <i type="logical" name="LPLANE"> T  </i>
   <i type="logical" name="LSCALAPACK"> F  </i>
   <i type="logical" name="LSCAAWARE"> F  </i>
   <i type="logical" name="LSCALU"> F  </i>
   <i type="logical" name="LASYNC"> F  </i>
   <i type="logical" name="LORBITALREAL"> F  </i>
  </separator>
  <separator name="miscellaneous" >
   <i type="int" name="IDIOT">     3</i>
   <i type="logical" name="LMUSIC"> F  </i>
   <v name="POMASS">     26.98200000</v>
   <v name="DARWINR">      0.00000000</v>
   <v name="DARWINV">      1.00000000</v>
   <i type="logical" name="LCORR"> T  </i>
  </separator>
  <i type="logical" name="GGA_COMPAT"> T  </i>
  <i type="logical" name="LBERRY"> F  </i>
  <i type="int" name="ICORELEVEL">     0</i>
  <i type="logical" name="LDAU"> F  </i>
  <i type="int" name="I_CONSTRAINED_M">     0</i>
  <separator name="electronic exchange-correlation" >
   <i type="string" name="GGA">--</i>
   <i type="int" name="VOSKOWN">     0</i>
   <i type="logical" name="LHFCALC"> F  </i>
   <i type="string" name="PRECFOCK"></i>
   <i type="logical" name="LSYMGRAD"> F  </i>
   <i type="logical" name="LHFONE"> F  </i>
   <i type="logical" name="LRHFCALC"> F  </i>
   <i type="logical" name="LTHOMAS"> F  </i>
   <i type="logical" name="LMODELHF"> F  </i>
   <i name="ENCUT4O">     -1.00000000</i>
   <i type="int" name="EXXOEP">     0</i>
   <i type="int" name="FOURORBIT">     0</i>
   <i name="AEXX">      0.00000000</i>
   <i name="HFALPHA">      0.00000000</i>
   <i name="MCALPHA">      0.00000000</i>
   <i name="ALDAX">      1.00000000</i>
   <i name="AGGAX">      1.00000000</i>
   <i name="ALDAC">      1.00000000</i>
   <i name="AGGAC">      1.00000000</i>
   <i type="int" name="NKREDX">     1</i>
   <i type="int" name="NKREDY">     1</i>
   <i type="int" name="NKREDZ">     1</i>
   <i type="logical" name="SHIFTRED"> F  </i>
   <i type="logical" name="ODDONLY"> F  </i>
   <i type="logical" name="EVENONLY"> F  </i>
   <i type="int" name="LMAXFOCK">     0</i>
   <i type="int" name="NMAXFOCKAE">     0</i>
   <i type="logical" name="LFOCKAEDFT"> F  </i>
   <i name="HFSCREEN">      0.00000000</i>
   <i name="HFSCREENC">      0.00000000</i>
   <i type="int" name="NBANDSGWLOW">     0</i>
  </separator>
  <separator name="vdW DFT" >
   <i type="logical" name="LUSE_VDW"> F  </i>
   <i name="Zab_VDW">     -0.84910000</i>
   <i name="PARAM1">      0.12340000</i>
   <i name="PARAM2">      1.00000000</i>
   <i name="PARAM3">      0.00000000</i>
  </separator>
  <separator name="model GW" >
   <i type="int" name="MODEL_GW">     0</i>
   <i name="MODEL_EPS0">      9.96451875</i>
   <i name="MODEL_ALPHA">      1.00000000</i>
  </separator>
  <separator name="linear response parameters" >
   <i type="logical" name="LEPSILON"> F  </i>
   <i type="logical" name="LRPA"> F  </i>
   <i type="logical" name="LNABLA"> F  </i>
   <i type="logical" name="LVEL"> F  </i>
   <i type="int" name="KINTER">     0</i>
   <i name="CSHIFT">      0.10000000</i>
   <i name="OMEGAMAX">     -1.00000000</i>
   <i name="DEG_THRESHOLD">      0.00200000</i>
  </separator>
  <separator name="orbital magnetization" >
   <i type="logical" name="NUCIND"> F  </i>
   <v name="MAGPOS">      0.00000000      0.00000000      0.00000000</v>
   <i type="logical" name="LNICSALL"> T  </i>
   <i type="logical" name="ORBITALMAG"> F  </i>
   <i type="logical" name="LMAGBLOCH"> F  </i>
   <i type="logical" name="LCHIMAG"> F  </i>
   <i type="logical" name="LGAUGE"> T  </i>
   <i type="int" name="MAGATOM">     0</i>
   <v name="MAGDIPOL">      0.00000000      0.00000000      0.00000000</v>
   <v name="AVECCONST">      0.00000000      0.00000000      0.00000000</v>
  </separator>
  <separator name="response functions" >
   <i type="logical" name="LADDER"> F  </i>
   <i type="logical" name="LHARTREE"> T  </i>
   <i type="int" name="IBSE">     0</i>
   <i type="logical" name="LTCTE"> F  </i>
   <i type="logical" name="LTETE"> F  </i>
   <i type="logical" name="LTRIPLET"> F  </i>
   <i type="logical" name="LFXCEPS"> F  </i>
   <i type="logical" name="L2ORDER"> F  </i>
   <i type="logical" name="LUSEW"> F  </i>
   <i name="ENCUTGW">     -2.00000000</i>
   <i name="ENCUTGWSOFT">     -2.00000000</i>
   <i name="ENCUTLF">     -1.00000000</i>
   <i type="int" name="LMAXMP2">    -1</i>
   <i name="SCISSOR">      0.00000000</i>
   <i type="int" name="NOMEGA">     0</i>
   <i type="int" name="NOMEGAR">     0</i>
   <i type="int" name="NBANDSGW">    -1</i>
   <i type="int" name="NBANDSO">    -1</i>
   <i type="int" name="NBANDSV">    -1</i>
   <i type="int" name="NELM">     1</i>
   <i type="int" name="DIM">     3</i>
   <i type="int" name="ANTIRES">     0</i>
   <i name="OMEGAMAX">    -30.00000000</i>
   <i name="OMEGATL">   -200.00000000</i>
   <i type="int" name="OMEGAGRID">     0</i>
   <i name="CSHIFT">     -0.10000000</i>
   <i type="logical" name="SELFENERGY"> F  </i>
   <i type="logical" name="LSPECTRAL"> F  </i>
   <i type="logical" name="ODDONLYGW"> F  </i>
   <i type="logical" name="EVENONLYGW"> F  </i>
   <i type="int" name="NKREDLFX">     1</i>
   <i type="int" name="NKREDLFY">     1</i>
   <i type="int" name="NKREDLFZ">     1</i>
   <i type="int" name="MAXMEM">  1800</i>
   <i type="int" name="TELESCOPE">     0</i>
  </separator>
 </parameters>
 <atominfo>
  <atoms>       4 </atoms>
  <types>       1 </types>
  <array name="atoms" >
   <dimension dim="1">ion</dimension>
   <field type="string">element</field>
   <field type="int">atomtype</field>
   <set>
    <rc><c>Al</c><c>   1</c></rc>
    <rc><c>Al</c><c>   1</c></rc>
    <rc><c>Al</c><c>   1</c></rc>
    <rc><c>Al</c><c>   1</c></rc>
   </set>
  </array>
  <array name="atomtypes" >
   <dimension dim="1">type</dimension>
   <field type="int">atomspertype</field>
   <field type="string">element</field>
   <field>mass</field>
   <field>valence</field>
   <field type="string">pseudopotential</field>
   <set>
    <rc><c>   4</c><c>Al</c><c>     26.98200000</c><c>      3.00000000</c><c>  PAW Al                                </c></rc>
   </set>
  </array>
 </atominfo>
 <structure name="initialpos" >
  <crystal>
   <varray name="basis" >
    <v>       4.05000000       0.00000000       0.00000000 </v>
    <v>       0.00000000       4.05000000       0.00000000 </v>
    <v>       0.00000000       0.00000000       4.05000000 </v>
   </varray>
   <i name="volume">     66.43012500 </i>
   <varray name="rec_basis" >
    <v>       0.24691358       0.00000000       0.00000000 </v>
    <v>       0.00000000       0.24691358       0.00000000 </v>
    <v>       0.00000000       0.00000000       0.24691358 </v>
   </varray>
  </crystal>
  <varray name="positions" >
   <v>       0.00000000       0.00000000       0.00000000 </v>
   <v>       0.00000000       0.50000000       0.50000000 </v>
   <v>       0.50000000       0.00000000       0.50000000 </v>
   <v>       0.50000000       0.50000000       0.00000000 </v>
  </varray>
 </structure>
 <calculation>
  <scstep>
   <time name="dav">    0.32    0.39</time>
   <time name="total">    0.39    0.57</time>
   <energy>
    <i name="alphaZ">     -0.61330648 </i>
    <i name="ewald">   -293.42683892 </i>
    <i name="hartreedc">     -0.42200802 </i>
    <i name="XCdc">   -105.62208372 </i>
    <i name="pawpsdc">    142.63640024 </i>
    <i name="pawaedc">    -14.42330091 </i>
    <i name="eentropy">      0.00047558 </i>
    <i name="bandstr">     56.39048910 </i>
    <i name="atom">    214.75202816 </i>
    <i name="e_fr_energy">     -0.72814496 </i>
    <i name="e_wo_entrp">     -0.72862054 </i>
    <i name="e_0_energy">     -0.72830349 </i>
   </energy>
  </scstep>
  <scstep>
   <time name="dav">    0.40    0.39</time>
   <time name="total">    0.40    0.40</time>
   <energy>
    <i name="e_fr_energy">    -14.42883498 </i>
    <i name="e_wo_entrp">    -14.42894266 </i>
    <i name="e_0_energy">    -14.42887088 </i>
   </energy>
  </scstep>
  <scstep>
   <time name="dav">    0.38    0.38</time>
   <time name="total">    0.38    0.38</time>
   <energy>
    <i name="e_fr_energy">    -14.83391888 </i>
    <i name="e_wo_entrp">    -14.83331434 </i>
    <i name="e_0_energy">    -14.83371737 </i>
   </energy>
  </scstep>
  <scstep>
   <time name="dav">    0.37    0.37</time>
   <time name="total">    0.37    0.38</time>
   <energy>
    <i name="e_fr_energy">    -14.83601946 </i>
    <i name="e_wo_entrp">    -14.83539806 </i>
    <i name="e_0_energy">    -14.83581233 </i>
   </energy>
  </scstep>
  <scstep>
   <time name="dav">    0.37    0.38</time>
   <time name="total">    0.41    0.47</time>
   <energy>
    <i name="e_fr_energy">    -14.83602741 </i>
    <i name="e_wo_entrp">    -14.83540601 </i>
    <i name="e_0_energy">    -14.83582028 </i>
   </energy>
  </scstep>
  <scstep>
   <time name="dav">    0.33    0.33</time>
   <time name="total">    0.41    0.43</time>
   <energy>
    <i name="e_fr_energy">    -14.78935531 </i>
    <i name="e_wo_entrp">    -14.78859608 </i>
    <i name="e_0_energy">    -14.78910223 </i>
   </energy>
  </scstep>
  <scstep>
   <time name="dav">    0.33    0.33</time>
   <time name="total">    0.40    0.42</time>
   <energy>
    <i name="e_fr_energy">    -14.75851147 </i>
    <i name="e_wo_entrp">    -14.75749436 </i>
    <i name="e_0_energy">    -14.75817243 </i>
   </energy>
  </scstep>
  <scstep>
   <time name="dav">    0.38    0.38</time>
   <time name="total">    0.45    0.46</time>
   <energy>
    <i name="e_fr_energy">    -14.75854743 </i>
    <i name="e_wo_entrp">    -14.75753123 </i>
    <i name="e_0_energy">    -14.75820869 </i>
   </energy>
  </scstep>
  <scstep>
   <time name="dav">    0.29    0.29</time>
   <time name="total">    0.36    0.37</time>
   <energy>
    <i name="e_fr_energy">    -14.75855274 </i>
    <i name="e_wo_entrp">    -14.75753881 </i>
    <i name="e_0_energy">    -14.75821476 </i>
   </energy>
  </scstep>
  <scstep>
   <time name="dav">    0.22    0.22</time>
   <time name="total">    0.29    0.30</time>
   <energy>
    <i name="e_fr_energy">    -14.75855171 </i>
    <i name="e_wo_entrp">    -14.75753793 </i>
    <i name="e_0_energy">    -14.75821378 </i>
   </energy>
  </scstep>
  <scstep>
   <time name="dav">    0.20    0.20</time>
   <time name="total">    0.25    0.25</time>
   <energy>
    <i name="alphaZ">     -0.61330648 </i>
    <i name="ewald">   -293.42683892 </i>
    <i name="hartreedc">     -0.41844165 </i>
    <i name="XCdc">   -105.18349445 </i>
    <i name="pawpsdc">    143.58495281 </i>
    <i name="pawaedc">    -15.45244495 </i>
    <i name="eentropy">     -0.00101382 </i>
    <i name="bandstr">     42.00000771 </i>
    <i name="atom">    214.75202816 </i>
    <i name="e_fr_energy">    -14.75855159 </i>
    <i name="e_wo_entrp">    -14.75753777 </i>
    <i name="e_0_energy">    -14.75821365 </i>
   </energy>
  </scstep>
  <structure>
   <crystal>
    <varray name="basis" >
     <v>       4.05000000       0.00000000       0.00000000 </v>
     <v>       0.00000000       4.05000000       0.00000000 </v>
     <v>       0.00000000       0.00000000       4.05000000 </v>
    </varray>
    <i name="volume">     66.43012500 </i>
    <varray name="rec_basis" >
     <v>       0.24691358       0.00000000       0.00000000 </v>
     <v>       0.00000000       0.24691358       0.00000000 </v>
     <v>       0.00000000       0.00000000       0.24691358 </v>
    </varray>
   </crystal>
   <varray name="positions" >
    <v>       0.00000000       0.00000000       0.00000000 </v>
    <v>       0.00000000       0.50000000       0.50000000 </v>
    <v>       0.50000000       0.00000000       0.50000000 </v>
    <v>       0.50000000       0.50000000       0.00000000 </v>
   </varray>
  </structure>
  <varray name="forces" >
   <v>       0.00000000       0.00000000       0.00000000 </v>
   <v>       0.00000000       0.00000000       0.00000000 </v>
   <v>       0.00000000       0.00000000       0.00000000 </v>
   <v>       0.00000000       0.00000000       0.00000000 </v>
  </varray>
  <varray name="stress" >
   <v>      -2.37539947       0.00000000       0.00000000 </v>
   <v>       0.00000000      -2.37539947       0.00000000 </v>
   <v>       0.00000000       0.00000000      -2.37539947 </v>
  </varray>
  <energy>
   <i name="e_fr_energy">    -14.75855159 </i>
   <i name="e_wo_entrp">    -14.75821365 </i>
   <i name="e_0_energy">     -0.00101382 </i>
  </energy>
  <time name="totalsc">    4.71    5.23</time>
 </calculation>
 <calculation>
  <scstep>
   <time name="dav">    0.37    0.37</time>
   <time name="total">    0.44    0.45</time>
   <energy>
    <i name="alphaZ">     -0.61549723 </i>
    <i name="ewald">   -293.77580110 </i>
    <i name="hartreedc">     -0.41893893 </i>
    <i name="XCdc">   -105.16136567 </i>
    <i name="pawpsdc">    143.58499366 </i>
    <i name="pawaedc">    -15.45248462 </i>
    <i name="eentropy">     -0.00097758 </i>
    <i name="bandstr">     42.32931504 </i>
    <i name="atom">    214.75202816 </i>
    <i name="e_fr_energy">    -14.75872829 </i>
    <i name="e_wo_entrp">    -14.75775071 </i>
    <i name="e_0_energy">    -14.75840243 </i>
   </energy>
  </scstep>
  <scstep>
   <time name="dav">    0.35    0.35</time>
   <time name="total">    0.42    0.43</time>
   <energy>
    <i name="e_fr_energy">    -14.75872108 </i>
    <i name="e_wo_entrp">    -14.75774116 </i>
    <i name="e_0_energy">    -14.75839444 </i>
   </energy>
  </scstep>
  <scstep>
   <time name="dav">    0.33    0.33</time>
   <time name="total">    0.40    0.41</time>
   <energy>
    <i name="e_fr_energy">    -14.75871630 </i>
    <i name="e_wo_entrp">    -14.75773233 </i>
    <i name="e_0_energy">    -14.75838831 </i>
   </energy>
  </scstep>
  <scstep>
   <time name="dav">    0.19    0.19</time>
   <time name="total">    0.23    0.24</time>
   <energy>
    <i name="alphaZ">     -0.61549723 </i>
    <i name="ewald">   -293.77580110 </i>
    <i name="hartreedc">     -0.42009683 </i>
    <i name="XCdc">   -105.15498009 </i>
    <i name="pawpsdc">    143.62553781 </i>
    <i name="pawaedc">    -15.49514409 </i>
    <i name="eentropy">     -0.00098394 </i>
    <i name="bandstr">     42.32622101 </i>
    <i name="atom">    214.75202816 </i>
    <i name="e_fr_energy">    -14.75871630 </i>
    <i name="e_wo_entrp">    -14.75773237 </i>
    <i name="e_0_energy">    -14.75838832 </i>
   </energy>
  </scstep>
  <structure>
   <crystal>
    <varray name="basis" >
     <v>       4.04518920       0.00000000       0.00000000 </v>
     <v>       0.00000000       4.04518920       0.00000000 </v>
     <v>       0.00000000       0.00000000       4.04518920 </v>
    </varray>
    <i name="volume">     66.19367861 </i>
    <varray name="rec_basis" >
     <v>       0.24720723       0.00000000       0.00000000 </v>
     <v>       0.00000000       0.24720723       0.00000000 </v>
     <v>       0.00000000       0.00000000       0.24720723 </v>
    </varray>
   </crystal>
   <varray name="positions" >
    <v>       0.00000000       0.00000000       0.00000000 </v>
    <v>       0.00000000       0.50000000       0.50000000 </v>
    <v>       0.50000000       0.00000000       0.50000000 </v>
    <v>       0.50000000       0.50000000       0.00000000 </v>
   </varray>
  </structure>
  <varray name="forces" >
   <v>       0.00000000       0.00000000       0.00000000 </v>
   <v>       0.00000000       0.00000000       0.00000000 </v>
   <v>       0.00000000       0.00000000       0.00000000 </v>
   <v>       0.00000000       0.00000000       0.00000000 </v>
  </varray>
  <varray name="stress" >
   <v>       0.18345383       0.00000000       0.00000000 </v>
   <v>       0.00000000       0.18345383       0.00000000 </v>
   <v>       0.00000000       0.00000000       0.18345383 </v>
  </varray>
  <energy>
   <i name="e_fr_energy">    -14.75871630 </i>
   <i name="e_wo_entrp">    -14.75838832 </i>
   <i name="e_0_energy">     -0.00098394 </i>
  </energy>
  <time name="totalsc">    1.94    1.97</time>
 </calculation>
 <calculation>
  <scstep>
   <time name="dav">    0.34    0.34</time>
   <time name="total">    0.41    0.41</time>
   <energy>
    <i name="alphaZ">     -0.61534034 </i>
    <i name="ewald">   -293.75083784 </i>
    <i name="hartreedc">     -0.42015119 </i>
    <i name="XCdc">   -105.15648902 </i>
    <i name="pawpsdc">    143.62441631 </i>
    <i name="pawaedc">    -15.49400540 </i>
    <i name="eentropy">     -0.00098655 </i>
    <i name="bandstr">     42.30264846 </i>
    <i name="atom">    214.75202816 </i>
    <i name="e_fr_energy">    -14.75871742 </i>
    <i name="e_wo_entrp">    -14.75773087 </i>
    <i name="e_0_energy">    -14.75838857 </i>
   </energy>
  </scstep>
  <scstep>
   <time name="dav">    0.20    0.20</time>
   <time name="total">    0.24    0.25</time>
   <energy>
    <i name="alphaZ">     -0.61534034 </i>
    <i name="ewald">   -293.75083784 </i>
    <i name="hartreedc">     -0.42012017 </i>
    <i name="XCdc">   -105.15665825 </i>
    <i name="pawpsdc">    143.62320010 </i>
    <i name="pawaedc">    -15.49273236 </i>
    <i name="eentropy">     -0.00098638 </i>
    <i name="bandstr">     42.30272978 </i>
    <i name="atom">    214.75202816 </i>
    <i name="e_fr_energy">    -14.75871730 </i>
    <i name="e_wo_entrp">    -14.75773092 </i>
    <i name="e_0_energy">    -14.75838850 </i>
   </energy>
  </scstep>
  <structure>
   <crystal>
    <varray name="basis" >
     <v>       4.04553296       0.00000000       0.00000000 </v>
     <v>       0.00000000       4.04553296       0.00000000 </v>
     <v>       0.00000000       0.00000000       4.04553296 </v>
    </varray>
    <i name="volume">     66.21055567 </i>
    <varray name="rec_basis" >
     <v>       0.24718622       0.00000000       0.00000000 </v>
     <v>       0.00000000       0.24718622       0.00000000 </v>
     <v>       0.00000000       0.00000000       0.24718622 </v>
    </varray>
   </crystal>
   <varray name="positions" >
    <v>       0.00000000       0.00000000       0.00000000 </v>
    <v>       0.00000000       0.50000000       0.50000000 </v>
    <v>       0.50000000       0.00000000       0.50000000 </v>
    <v>       0.50000000       0.50000000       0.00000000 </v>
   </varray>
  </structure>
  <varray name="forces" >
   <v>       0.00000000       0.00000000       0.00000000 </v>
   <v>       0.00000000       0.00000000       0.00000000 </v>
   <v>       0.00000000       0.00000000       0.00000000 </v>
   <v>       0.00000000       0.00000000       0.00000000 </v>
  </varray>
  <varray name="stress" >
   <v>       0.01639557       0.00000000       0.00000000 </v>
   <v>       0.00000000       0.01639557       0.00000000 </v>
   <v>       0.00000000       0.00000000       0.01639557 </v>
  </varray>
  <energy>
   <i name="e_fr_energy">    -14.75871730 </i>
   <i name="e_wo_entrp">    -14.75838850 </i>
   <i name="e_0_energy">     -0.00098638 </i>
  </energy>
  <time name="totalsc">    1.09    1.11</time>
  <eigenvalues>
   <array>
    <dimension dim="1">band</dimension>
    <dimension dim="2">kpoint</dimension>
    <dimension dim="3">spin</dimension>
    <field>eigene</field>
    <field>occ</field>
    <set>
     <set comment="spin 1">
      <set comment="kpoint 1">
       <r>   -3.1002    1.0000 </r>
       <r>    4.6546    1.0000 </r>
       <r>    4.6546    1.0000 </r>
       <r>    4.6546    1.0000 </r>
       <r>    6.8398    1.0000 </r>
       <r>    6.8398    1.0000 </r>
       <r>    6.8398    1.0000 </r>
       <r>   12.0971    0.0000 </r>
       <r>   12.0971    0.0000 </r>
       <r>   12.0971    0.0000 </r>
      </set>
      <set comment="kpoint 2">
       <r>   -2.9197    1.0000 </r>
       <r>    3.2343    1.0000 </r>
       <r>    4.8235    1.0000 </r>
       <r>    4.8235    1.0000 </r>
       <r>    7.0118    1.0000 </r>
       <r>    7.0118    1.0000 </r>
       <r>    8.5760   -0.0002 </r>
       <r>   10.6865    0.0000 </r>
       <r>   10.6865    0.0000 </r>
       <r>   12.2647    0.0000 </r>
      </set>
      <set comment="kpoint 3">
       <r>   -2.5592    1.0000 </r>
       <r>    1.8654    1.0000 </r>
       <r>    5.1603    1.0000 </r>
       <r>    5.1603    1.0000 </r>
       <r>    7.3496    1.0000 </r>
       <r>    7.3496    1.0000 </r>
       <r>    9.3704    0.0000 </r>
       <r>    9.3704    0.0000 </r>
       <r>   10.5711    0.0000 </r>
       <r>   11.6027    0.0000 </r>
      </set>
      <set comment="kpoint 4">
       <r>   -2.0201    1.0000 </r>
       <r>    0.6431    1.0000 </r>
       <r>    5.6644    1.0000 </r>
       <r>    5.6644    1.0000 </r>
       <r>    7.8067    1.0264 </r>
       <r>    7.8067    1.0264 </r>
       <r>    8.2494   -0.0354 </r>
       <r>    8.2494   -0.0354 </r>
       <r>   10.5014    0.0000 </r>
       <r>   10.5014    0.0000 </r>
      </set>
      <set comment="kpoint 5">
       <r>   -1.3045    1.0000 </r>
       <r>   -0.4154    1.0000 </r>
       <r>    6.3312    1.0000 </r>
       <r>    6.3312    1.0000 </r>
       <r>    7.1727    1.0000 </r>
       <r>    7.1727    1.0000 </r>
       <r>    8.4911   -0.0017 </r>
       <r>    8.4911   -0.0017 </r>
       <r>    9.5847    0.0000 </r>
       <r>    9.5847    0.0000 </r>
      </set>
      <set comment="kpoint 6">
       <r>   -2.7394    1.0000 </r>
       <r>    3.4065    1.0000 </r>
       <r>    3.4065    1.0000 </r>
       <r>    4.9919    1.0000 </r>
       <r>    7.1783    1.0000 </r>
       <r>    8.7402    0.0000 </r>
       <r>    8.7402    0.0000 </r>
       <r>    9.3443    0.0000 </r>
       <r>   10.8557    0.0000 </r>
       <r>   10.8557    0.0000 </r>
      </set>
      <set comment="kpoint 7">
       <r>   -2.3792    1.0000 </r>
       <r>    2.0396    1.0000 </r>
       <r>    3.7507    1.0000 </r>
       <r>    5.3280    1.0000 </r>
       <r>    7.4637    1.0004 </r>
       <r>    8.0911    0.1839 </r>
       <r>    9.0416    0.0000 </r>
       <r>    9.5628    0.0000 </r>
       <r>   10.7070    0.0000 </r>
       <r>   11.2114    0.0000 </r>
      </set>
      <set comment="kpoint 8">
       <r>   -1.8407    1.0000 </r>
       <r>    0.8192    1.0000 </r>
       <r>    4.2650    1.0000 </r>
       <r>    5.8278    1.0000 </r>
       <r>    6.8036    1.0000 </r>
       <r>    8.0956    0.1697 </r>
       <r>    8.3448   -0.0195 </r>
       <r>    9.5502    0.0000 </r>
       <r>   10.7096    0.0000 </r>
       <r>   11.6709    0.0000 </r>
      </set>
      <set comment="kpoint 9">
       <r>   -1.1261    1.0000 </r>
       <r>   -0.2382    1.0000 </r>
       <r>    4.9472    1.0000 </r>
       <r>    5.7867    1.0000 </r>
       <r>    6.5193    1.0000 </r>
       <r>    7.3492    1.0000 </r>
       <r>    8.7468    0.0000 </r>
       <r>    9.5091    0.0000 </r>
       <r>   10.4221    0.0000 </r>
       <r>   11.1699    0.0000 </r>
      </set>
      <set comment="kpoint 10">
       <r>   -2.0200    1.0000 </r>
       <r>    2.3877    1.0000 </r>
       <r>    2.3877    1.0000 </r>
       <r>    5.6599    1.0000 </r>
       <r>    6.6525    1.0000 </r>
       <r>    7.9333    0.7972 </r>
       <r>    9.8480    0.0000 </r>
       <r>    9.8480    0.0000 </r>
       <r>   11.0425    0.0000 </r>
       <r>   11.0425    0.0000 </r>
      </set>
      <set comment="kpoint 11">
       <r>   -1.4830    1.0000 </r>
       <r>    1.1705    1.0000 </r>
       <r>    2.9084    1.0000 </r>
       <r>    5.4687    1.0000 </r>
       <r>    6.1854    1.0000 </r>
       <r>    8.4280   -0.0058 </r>
       <r>    8.6883    0.0000 </r>
       <r>   10.3571    0.0000 </r>
       <r>   10.8502    0.0000 </r>
       <r>   11.7108    0.0000 </r>
      </set>
      <set comment="kpoint 12">
       <r>   -0.7701    1.0000 </r>
       <r>    0.1156    1.0000 </r>
       <r>    3.5996    1.0000 </r>
       <r>    4.4570    1.0000 </r>
       <r>    6.8493    1.0000 </r>
       <r>    7.6863    1.0224 </r>
       <r>    9.1013    0.0000 </r>
       <r>    9.9289    0.0000 </r>
       <r>   11.0266    0.0000 </r>
       <r>   11.8599    0.0000 </r>
      </set>
      <set comment="kpoint 13">
       <r>   -0.9480    1.0000 </r>
       <r>    1.6957    1.0000 </r>
       <r>    1.6957    1.0000 </r>
       <r>    4.2902    1.0000 </r>
       <r>    6.6819    1.0000 </r>
       <r>    8.9384    0.0000 </r>
       <r>    9.1927    0.0000 </r>
       <r>    9.1927    0.0000 </r>
       <r>   11.4225    0.0000 </r>
       <r>   11.4225    0.0000 </r>
      </set>
      <set comment="kpoint 14">
       <r>   -0.2378    1.0000 </r>
       <r>    0.6449    1.0000 </r>
       <r>    2.3935    1.0000 </r>
       <r>    3.2601    1.0000 </r>
       <r>    7.3524    1.0000 </r>
       <r>    8.1900   -0.0120 </r>
       <r>    9.6147    0.0000 </r>
       <r>    9.8628    0.0000 </r>
       <r>   10.4479    0.0000 </r>
       <r>   10.6982    0.0000 </r>
      </set>
      <set comment="kpoint 15">
       <r>    0.4689    1.0000 </r>
       <r>    1.3476    1.0000 </r>
       <r>    1.3476    1.0000 </r>
       <r>    2.2209    1.0000 </r>
       <r>    8.0234    0.4403 </r>
       <r>    8.8606    0.0000 </r>
       <r>    8.8606    0.0000 </r>
       <r>    9.6971    0.0000 </r>
       <r>   10.2894    0.0000 </r>
       <r>   11.1199    0.0000 </r>
      </set>
      <set comment="kpoint 16">
       <r>   -2.5592    1.0000 </r>
       <r>    3.5784    1.0000 </r>
       <r>    3.5784    1.0000 </r>
       <r>    3.5784    1.0000 </r>
       <r>    8.8719    0.0000 </r>
       <r>    8.8719    0.0000 </r>
       <r>    8.8719    0.0000 </r>
       <r>    9.5459    0.0000 </r>
       <r>    9.5459    0.0000 </r>
       <r>    9.5459    0.0000 </r>
      </set>
      <set comment="kpoint 17">
       <r>   -2.1996    1.0000 </r>
       <r>    2.2136    1.0000 </r>
       <r>    3.9220    1.0000 </r>
       <r>    3.9220    1.0000 </r>
       <r>    8.1462    0.0456 </r>
       <r>    8.1462    0.0456 </r>
       <r>    9.2960    0.0000 </r>
       <r>    9.2960    0.0000 </r>
       <r>    9.8010    0.0000 </r>
       <r>   10.9403    0.0000 </r>
      </set>
      <set comment="kpoint 18">
       <r>   -1.6618    1.0000 </r>
       <r>    0.9951    1.0000 </r>
       <r>    4.4352    1.0000 </r>
       <r>    4.4352    1.0000 </r>
       <r>    6.9926    1.0000 </r>
       <r>    6.9926    1.0000 </r>
       <r>    9.7757    0.0000 </r>
       <r>    9.7757    0.0000 </r>
       <r>   10.3195    0.0000 </r>
       <r>   12.2947    0.0000 </r>
      </set>
      <set comment="kpoint 19">
       <r>   -0.9480    1.0000 </r>
       <r>   -0.0612    1.0000 </r>
       <r>    5.1083    1.0000 </r>
       <r>    5.1083    1.0000 </r>
       <r>    5.9913    1.0000 </r>
       <r>    5.9913    1.0000 </r>
       <r>   10.3922    0.0000 </r>
       <r>   10.3922    0.0000 </r>
       <r>   10.9904    0.0000 </r>
       <r>   11.3766    0.0000 </r>
      </set>
      <set comment="kpoint 20">
       <r>   -1.8408    1.0000 </r>
       <r>    2.5612    1.0000 </r>
       <r>    2.5612    1.0000 </r>
       <r>    4.2640    1.0000 </r>
       <r>    6.8436    1.0000 </r>
       <r>    8.5020   -0.0014 </r>
       <r>    8.5020   -0.0014 </r>
       <r>    9.6212    0.0000 </r>
       <r>   11.2561    0.0000 </r>
       <r>   11.2561    0.0000 </r>
      </set>
      <set comment="kpoint 21">
       <r>   -1.3044    1.0000 </r>
       <r>    1.3459    1.0000 </r>
       <r>    3.0813    1.0000 </r>
       <r>    4.7683    1.0000 </r>
       <r>    5.6756    1.0000 </r>
       <r>    7.3341    1.0000 </r>
       <r>    9.0110    0.0000 </r>
       <r>   10.1210    0.0000 </r>
       <r>   11.5172    0.0000 </r>
       <r>   11.7109    0.0000 </r>
      </set>
      <set comment="kpoint 22">
       <r>   -0.5924    1.0000 </r>
       <r>    0.2922    1.0000 </r>
       <r>    3.7709    1.0000 </r>
       <r>    4.6194    1.0000 </r>
       <r>    5.4839    1.0000 </r>
       <r>    6.3231    1.0000 </r>
       <r>    9.6842    0.0000 </r>
       <r>   10.5204    0.0000 </r>
       <r>   10.7793    0.0000 </r>
       <r>   11.5612    0.0000 </r>
      </set>
      <set comment="kpoint 23">
       <r>   -0.7701    1.0000 </r>
       <r>    1.8706    1.0000 </r>
       <r>    1.8706    1.0000 </r>
       <r>    4.4531    1.0000 </r>
       <r>    5.3137    1.0000 </r>
       <r>    7.8426    0.9981 </r>
       <r>    7.8426    0.9981 </r>
       <r>   10.3600    0.0000 </r>
       <r>   10.6256    0.0000 </r>
       <r>   13.0359    0.0000 </r>
      </set>
      <set comment="kpoint 24">
       <r>   -0.0608    1.0000 </r>
       <r>    0.8209    1.0000 </r>
       <r>    2.5674    1.0000 </r>
       <r>    3.4322    1.0000 </r>
       <r>    5.9849    1.0000 </r>
       <r>    6.8316    1.0000 </r>
       <r>    8.5179   -0.0010 </r>
       <r>    9.3580    0.0000 </r>
       <r>   11.2891    0.0000 </r>
       <r>   12.1039    0.0000 </r>
      </set>
      <set comment="kpoint 25">
       <r>    0.6451    1.0000 </r>
       <r>    1.5227    1.0000 </r>
       <r>    1.5227    1.0000 </r>
       <r>    2.3949    1.0000 </r>
       <r>    6.6632    1.0000 </r>
       <r>    7.5087    1.0011 </r>
       <r>    7.5087    1.0011 </r>
       <r>    8.3520   -0.0180 </r>
       <r>   11.9524    0.0000 </r>
       <r>   12.7683    0.0000 </r>
      </set>
      <set comment="kpoint 26">
       <r>   -1.4831    1.0000 </r>
       <r>    2.9077    1.0000 </r>
       <r>    2.9077    1.0000 </r>
       <r>    2.9077    1.0000 </r>
       <r>    7.1857    1.0000 </r>
       <r>    7.1857    1.0000 </r>
       <r>    7.1857    1.0000 </r>
       <r>   11.3728    0.0000 </r>
       <r>   11.5930    0.0000 </r>
       <r>   11.5930    0.0000 </r>
      </set>
      <set comment="kpoint 27">
       <r>   -0.9479    1.0000 </r>
       <r>    1.6959    1.0000 </r>
       <r>    3.4263    1.0000 </r>
       <r>    3.4263    1.0000 </r>
       <r>    6.0085    1.0000 </r>
       <r>    6.0085    1.0000 </r>
       <r>    7.6952    1.0244 </r>
       <r>   10.2154    0.0000 </r>
       <r>   12.0842    0.0000 </r>
       <r>   12.0842    0.0000 </r>
      </set>
      <set comment="kpoint 28">
       <r>   -0.2378    1.0000 </r>
       <r>    0.6448    1.0000 </r>
       <r>    4.1072    1.0000 </r>
       <r>    4.1072    1.0000 </r>
       <r>    4.9956    1.0000 </r>
       <r>    4.9956    1.0000 </r>
       <r>    8.3715   -0.0140 </r>
       <r>    9.2129    0.0000 </r>
       <r>   12.7047    0.0000 </r>
       <r>   12.7047    0.0000 </r>
      </set>
      <set comment="kpoint 29">
       <r>   -0.4149    1.0000 </r>
       <r>    2.2193    1.0000 </r>
       <r>    2.2193    1.0000 </r>
       <r>    3.9359    1.0000 </r>
       <r>    4.8290    1.0000 </r>
       <r>    6.5184    1.0000 </r>
       <r>    6.5184    1.0000 </r>
       <r>    9.0515    0.0000 </r>
       <r>   12.5838    0.0000 </r>
       <r>   14.1907    0.0000 </r>
      </set>
      <set comment="kpoint 30">
       <r>    0.2927    1.0000 </r>
       <r>    1.1722    1.0000 </r>
       <r>    2.9139    1.0000 </r>
       <r>    3.7703    1.0000 </r>
       <r>    4.6523    1.0000 </r>
       <r>    5.4998    1.0000 </r>
       <r>    7.1977    1.0000 </r>
       <r>    8.0434    0.3579 </r>
       <r>   13.2316    0.0000 </r>
       <r>   14.0040    0.0000 </r>
      </set>
      <set comment="kpoint 31">
       <r>    0.9969    1.0000 </r>
       <r>    1.8724    1.0000 </r>
       <r>    1.8724    1.0000 </r>
       <r>    2.7420    1.0000 </r>
       <r>    5.3296    1.0000 </r>
       <r>    6.1812    1.0000 </r>
       <r>    6.1812    1.0000 </r>
       <r>    7.0305    1.0000 </r>
       <r>   13.8833    0.0000 </r>
       <r>   14.6708    0.0000 </r>
      </set>
      <set comment="kpoint 32">
       <r>    0.1162    1.0000 </r>
       <r>    2.7409    1.0000 </r>
       <r>    2.7409    1.0000 </r>
       <r>    2.7409    1.0000 </r>
       <r>    5.3345    1.0000 </r>
       <r>    5.3345    1.0000 </r>
       <r>    5.3345    1.0000 </r>
       <r>    7.8811    0.9375 </r>
       <r>   14.6939    0.0000 </r>
       <r>   14.6939    0.0000 </r>
      </set>
      <set comment="kpoint 33">
       <r>    0.8213    1.0000 </r>
       <r>    1.6978    1.0000 </r>
       <r>    3.4273    1.0000 </r>
       <r>    3.4273    1.0000 </r>
       <r>    4.3142    1.0000 </r>
       <r>    4.3142    1.0000 </r>
       <r>    6.0167    1.0000 </r>
       <r>    6.8669    1.0000 </r>
       <r>   15.3057    0.0000 </r>
       <r>   15.3057    0.0000 </r>
      </set>
      <set comment="kpoint 34">
       <r>    1.5230    1.0000 </r>
       <r>    2.3953    1.0000 </r>
       <r>    2.3953    1.0000 </r>
       <r>    3.2571    1.0000 </r>
       <r>    4.1420    1.0000 </r>
       <r>    4.9940    1.0000 </r>
       <r>    4.9940    1.0000 </r>
       <r>    5.8477    1.0000 </r>
       <r>   15.9420    0.0000 </r>
       <r>   16.6476    0.0000 </r>
      </set>
      <set comment="kpoint 35">
       <r>    2.2210    1.0000 </r>
       <r>    3.0850    1.0000 </r>
       <r>    3.0850    1.0000 </r>
       <r>    3.0850    1.0000 </r>
       <r>    3.9702    1.0000 </r>
       <r>    3.9702    1.0000 </r>
       <r>    3.9702    1.0000 </r>
       <r>    4.8236    1.0000 </r>
       <r>   18.0177    0.0000 </r>
       <r>   18.0177    0.0000 </r>
      </set>
     </set>
    </set>
   </array>
  </eigenvalues>
  <separator name="orbital magnetization" >
   <v name="MAGDIPOLOUT">      0.00000000      0.00000000      0.00000000</v>
  </separator>
 </calculation>
 <structure name="finalpos" >
  <crystal>
   <varray name="basis" >
    <v>       4.04553296       0.00000000       0.00000000 </v>
    <v>       0.00000000       4.04553296       0.00000000 </v>
    <v>       0.00000000       0.00000000       4.04553296 </v>
   </varray>
   <i name="volume">     66.21055567 </i>
   <varray name="rec_basis" >
    <v>       0.24718622       0.00000000       0.00000000 </v>
    <v>       0.00000000       0.24718622       0.00000000 </v>
    <v>       0.00000000       0.00000000       0.24718622 </v>
   </varray>
  </crystal>
  <varray name="positions" >
   <v>       0.00000000       0.00000000       0.00000000 </v>
   <v>       0.00000000       0.50000000       0.50000000 </v>
   <v>       0.50000000       0.00000000       0.50000000 </v>
   <v>       0.50000000       0.50000000       0.00000000 </v>
  </varray>
 </structure>
</modeling>
