bcc Al                                  
           1
     4.050000    0.000000    0.000000
     0.000000    4.050000    0.000000
     0.000000    0.000000    4.050000
   Al
   4
bcc Al                                  
           1
     4.045189    0.000000    0.000000
     0.000000    4.045189    0.000000
     0.000000    0.000000    4.045189
   Al
   4
Direct configuration=     1
   0.00000000  0.00000000  0.00000000
   0.00000000  0.50000000  0.50000000
   0.50000000  0.00000000  0.50000000
   0.50000000  0.50000000  0.00000000
bcc Al                                  
           1
     4.045533    0.000000    0.000000
     0.000000    4.045533    0.000000
     0.000000    0.000000    4.045533
   Al
   4
Direct configuration=     2
   0.00000000  0.00000000  0.00000000
   0.00000000  0.50000000  0.50000000
   0.50000000  0.00000000  0.50000000
   0.50000000  0.50000000  0.00000000
bcc Al                                  
           1
     4.045533    0.000000    0.000000
     0.000000    4.045533    0.000000
     0.000000    0.000000    4.045533
   Al
   4
Direct configuration=     3
   0.00000000  0.00000000  0.00000000
   0.00000000  0.50000000  0.50000000
   0.50000000  0.00000000  0.50000000
   0.50000000  0.50000000  0.00000000
