bcc Na                                  
   4.29060000000000     
     0.985606    0.000000    0.000000
     0.000000    0.985606    0.000000
     0.000000    0.000000    0.985606
   Na
     2
Direct
  0.000000  0.000000  0.000000
  0.500000  0.500000  0.500000
 
   24   24   24
  1.0841      1.0213     0.90059     0.86742      1.0233      1.3451      1.7056      1.9705      2.1010      2.1278    
  2.1013      2.0662      2.0513      2.0662      2.1013      2.1278      2.1010      1.9705      1.7056      1.3451    
  1.0233     0.86742     0.90059      1.0213      1.0213     0.97077     0.88060     0.88140      1.0602      1.3874    
  1.7388      1.9900      2.1104      2.1319      2.1036      2.0684      2.0537      2.0684      2.1036      2.1319    
  2.1104      1.9900      1.7388      1.3874      1.0602     0.88140     0.88060     0.97077     0.90059     0.88060    
 0.86566     0.94784      1.1773      1.5089      1.8290      2.0410      2.1338      2.1415      2.1092      2.0746    
  2.0606      2.0746      2.1092      2.1415      2.1338      2.0410      1.8290      1.5089      1.1773     0.94784    
 0.86566     0.88060     0.86742     0.88140     0.94784      1.1112      1.3780      1.6891      1.9495      2.1041    
  2.1595      2.1502      2.1149      2.0828      2.0704      2.0828      2.1149      2.1502      2.1595      2.1041    
  1.9495      1.6891      1.3780      1.1112     0.94784     0.88140      1.0233      1.0602      1.1773      1.3780    
  1.6353      1.8856      2.0656      2.1564      2.1742      2.1511      2.1168      2.0904      2.0807      2.0904    
  2.1168      2.1511      2.1742      2.1564      2.0656      1.8856      1.6353      1.3780      1.1773      1.0602    
  1.3451      1.3874      1.5089      1.6891      1.8856      2.0482      2.1473      2.1811      2.1700      2.1406    
  2.1125      2.0946      2.0886      2.0946      2.1125      2.1406      2.1700      2.1811      2.1473      2.0482    
  1.8856      1.6891      1.5089      1.3874      1.7056      1.7388      1.8290      1.9495      2.0656      2.1473    
  2.1815      2.1753      2.1484      2.1205      2.1021      2.0937      2.0916      2.0937      2.1021      2.1205    
  2.1484      2.1753      2.1815      2.1473      2.0656      1.9495      1.8290      1.7388      1.9705      1.9900    
  2.0410      2.1041      2.1564      2.1811      2.1753      2.1490      2.1186      2.0971      2.0883      2.0878    
  2.0886      2.0878      2.0883      2.0971      2.1186      2.1490      2.1753      2.1811      2.1564      2.1041    
  2.0410      1.9900      2.1010      2.1104      2.1338      2.1595      2.1742      2.1700      2.1484      2.1186    
  2.0925      2.0780      2.0753      2.0786      2.0807      2.0786      2.0753      2.0780      2.0925      2.1186    
  2.1484      2.1700      2.1742      2.1595      2.1338      2.1104      2.1278      2.1319      2.1415      2.1502    
  2.1511      2.1406      2.1205      2.0971      2.0780      2.0677      2.0662      2.0688      2.0704      2.0688    
  2.0662      2.0677      2.0780      2.0971      2.1205      2.1406      2.1511      2.1502      2.1415      2.1319    
  2.1013      2.1036      2.1092      2.1149      2.1168      2.1125      2.1021      2.0883      2.0753      2.0662    
  2.0618      2.0606      2.0606      2.0606      2.0618      2.0662      2.0753      2.0883      2.1021      2.1125    
  2.1168      2.1149      2.1092      2.1036      2.0662      2.0684      2.0746      2.0828      2.0904      2.0946    
  2.0937      2.0878      2.0786      2.0688      2.0606      2.0554      2.0537      2.0554      2.0606      2.0688    
  2.0786      2.0878      2.0937      2.0946      2.0904      2.0828      2.0746      2.0684      2.0513      2.0537    
  2.0606      2.0704      2.0807      2.0886      2.0916      2.0886      2.0807      2.0704      2.0606      2.0537    
  2.0513      2.0537      2.0606      2.0704      2.0807      2.0886      2.0916      2.0886      2.0807      2.0704    
  2.0606      2.0537      2.0662      2.0684      2.0746      2.0828      2.0904      2.0946      2.0937      2.0878    
  2.0786      2.0688      2.0606      2.0554      2.0537      2.0554      2.0606      2.0688      2.0786      2.0878    
  2.0937      2.0946      2.0904      2.0828      2.0746      2.0684      2.1013      2.1036      2.1092      2.1149    
  2.1168      2.1125      2.1021      2.0883      2.0753      2.0662      2.0618      2.0606      2.0606      2.0606    
  2.0618      2.0662      2.0753      2.0883      2.1021      2.1125      2.1168      2.1149      2.1092      2.1036    
  2.1278      2.1319      2.1415      2.1502      2.1511      2.1406      2.1205      2.0971      2.0780      2.0677    
  2.0662      2.0688      2.0704      2.0688      2.0662      2.0677      2.0780      2.0971      2.1205      2.1406    
  2.1511      2.1502      2.1415      2.1319      2.1010      2.1104      2.1338      2.1595      2.1742      2.1700    
  2.1484      2.1186      2.0925      2.0780      2.0753      2.0786      2.0807      2.0786      2.0753      2.0780    
  2.0925      2.1186      2.1484      2.1700      2.1742      2.1595      2.1338      2.1104      1.9705      1.9900    
  2.0410      2.1041      2.1564      2.1811      2.1753      2.1490      2.1186      2.0971      2.0883      2.0878    
  2.0886      2.0878      2.0883      2.0971      2.1186      2.1490      2.1753      2.1811      2.1564      2.1041    
  2.0410      1.9900      1.7056      1.7388      1.8290      1.9495      2.0656      2.1473      2.1815      2.1753    
  2.1484      2.1205      2.1021      2.0937      2.0916      2.0937      2.1021      2.1205      2.1484      2.1753    
  2.1815      2.1473      2.0656      1.9495      1.8290      1.7388      1.3451      1.3874      1.5089      1.6891    
  1.8856      2.0482      2.1473      2.1811      2.1700      2.1406      2.1125      2.0946      2.0886      2.0946    
  2.1125      2.1406      2.1700      2.1811      2.1473      2.0482      1.8856      1.6891      1.5089      1.3874    
  1.0233      1.0602      1.1773      1.3780      1.6353      1.8856      2.0656      2.1564      2.1742      2.1511    
  2.1168      2.0904      2.0807      2.0904      2.1168      2.1511      2.1742      2.1564      2.0656      1.8856    
  1.6353      1.3780      1.1773      1.0602     0.86742     0.88140     0.94784      1.1112      1.3780      1.6891    
  1.9495      2.1041      2.1595      2.1502      2.1149      2.0828      2.0704      2.0828      2.1149      2.1502    
  2.1595      2.1041      1.9495      1.6891      1.3780      1.1112     0.94784     0.88140     0.90059     0.88060    
 0.86566     0.94784      1.1773      1.5089      1.8290      2.0410      2.1338      2.1415      2.1092      2.0746    
  2.0606      2.0746      2.1092      2.1415      2.1338      2.0410      1.8290      1.5089      1.1773     0.94784    
 0.86566     0.88060      1.0213     0.97077     0.88060     0.88140      1.0602      1.3874      1.7388      1.9900    
  2.1104      2.1319      2.1036      2.0684      2.0537      2.0684      2.1036      2.1319      2.1104      1.9900    
  1.7388      1.3874      1.0602     0.88140     0.88060     0.97077      1.0213     0.97077     0.88060     0.88140    
  1.0602      1.3874      1.7388      1.9900      2.1104      2.1319      2.1036      2.0684      2.0537      2.0684    
  2.1036      2.1319      2.1104      1.9900      1.7388      1.3874      1.0602     0.88140     0.88060     0.97077    
 0.97077     0.93142     0.86894     0.90010      1.0986      1.4289      1.7704      2.0080      2.1186      2.1350    
  2.1051      2.0700      2.0554      2.0700      2.1051      2.1350      2.1186      2.0080      1.7704      1.4289    
  1.0986     0.90010     0.86894     0.93142     0.88060     0.86894     0.87424     0.97740      1.2182      1.5477    
  1.8557      2.0550      2.1391      2.1423      2.1089      2.0744      2.0606      2.0744      2.1089      2.1423    
  2.1391      2.0550      1.8557      1.5477      1.2182     0.97740     0.87424     0.86894     0.88140     0.90010    
 0.97740      1.1502      1.4185      1.7217      1.9692      2.1127      2.1611      2.1485      2.1126      2.0809    
  2.0688      2.0809      2.1126      2.1485      2.1611      2.1127      1.9692      1.7217      1.4185      1.1502    
 0.97740     0.90010      1.0602      1.0986      1.2182      1.4185      1.6696      1.9088      2.0774      2.1598    
  2.1729      2.1480      2.1138      2.0879      2.0786      2.0879      2.1138      2.1480      2.1729      2.1598    
  2.0774      1.9088      1.6696      1.4185      1.2182      1.0986      1.3874      1.4289      1.5477      1.7217    
  1.9088      2.0614      2.1524      2.1811      2.1677      2.1380      2.1106      2.0934      2.0878      2.0934    
  2.1106      2.1380      2.1677      2.1811      2.1524      2.0614      1.9088      1.7217      1.5477      1.4289    
  1.7388      1.7704      1.8557      1.9692      2.0774      2.1524      2.1821      2.1739      2.1471      2.1202    
  2.1029      2.0954      2.0937      2.0954      2.1029      2.1202      2.1471      2.1739      2.1821      2.1524    
  2.0774      1.9692      1.8557      1.7704      1.9900      2.0080      2.0550      2.1127      2.1598      2.1811    
  2.1739      2.1483      2.1198      2.1002      2.0930      2.0934      2.0946      2.0934      2.0930      2.1002    
  2.1198      2.1483      2.1739      2.1811      2.1598      2.1127      2.0550      2.0080      2.1104      2.1186    
  2.1391      2.1611      2.1729      2.1677      2.1471      2.1198      2.0966      2.0846      2.0837      2.0879    
  2.0904      2.0879      2.0837      2.0846      2.0966      2.1198      2.1471      2.1677      2.1729      2.1611    
  2.1391      2.1186      2.1319      2.1350      2.1423      2.1485      2.1480      2.1380      2.1202      2.1002    
  2.0846      2.0772      2.0774      2.0809      2.0828      2.0809      2.0774      2.0772      2.0846      2.1002    
  2.1202      2.1380      2.1480      2.1485      2.1423      2.1350      2.1036      2.1051      2.1089      2.1126    
  2.1138      2.1106      2.1029      2.0930      2.0837      2.0774      2.0748      2.0744      2.0746      2.0744    
  2.0748      2.0774      2.0837      2.0930      2.1029      2.1106      2.1138      2.1126      2.1089      2.1051    
  2.0684      2.0700      2.0744      2.0809      2.0879      2.0934      2.0954      2.0934      2.0879      2.0809    
  2.0744      2.0700      2.0684      2.0700      2.0744      2.0809      2.0879      2.0934      2.0954      2.0934    
  2.0879      2.0809      2.0744      2.0700      2.0537      2.0554      2.0606      2.0688      2.0786      2.0878    
  2.0937      2.0946      2.0904      2.0828      2.0746      2.0684      2.0662      2.0684      2.0746      2.0828    
  2.0904      2.0946      2.0937      2.0878      2.0786      2.0688      2.0606      2.0554      2.0684      2.0700    
  2.0744      2.0809      2.0879      2.0934      2.0954      2.0934      2.0879      2.0809      2.0744      2.0700    
  2.0684      2.0700      2.0744      2.0809      2.0879      2.0934      2.0954      2.0934      2.0879      2.0809    
  2.0744      2.0700      2.1036      2.1051      2.1089      2.1126      2.1138      2.1106      2.1029      2.0930    
  2.0837      2.0774      2.0748      2.0744      2.0746      2.0744      2.0748      2.0774      2.0837      2.0930    
  2.1029      2.1106      2.1138      2.1126      2.1089      2.1051      2.1319      2.1350      2.1423      2.1485    
  2.1480      2.1380      2.1202      2.1002      2.0846      2.0772      2.0774      2.0809      2.0828      2.0809    
  2.0774      2.0772      2.0846      2.1002      2.1202      2.1380      2.1480      2.1485      2.1423      2.1350    
  2.1104      2.1186      2.1391      2.1611      2.1729      2.1677      2.1471      2.1198      2.0966      2.0846    
  2.0837      2.0879      2.0904      2.0879      2.0837      2.0846      2.0966      2.1198      2.1471      2.1677    
  2.1729      2.1611      2.1391      2.1186      1.9900      2.0080      2.0550      2.1127      2.1598      2.1811    
  2.1739      2.1483      2.1198      2.1002      2.0930      2.0934      2.0946      2.0934      2.0930      2.1002    
  2.1198      2.1483      2.1739      2.1811      2.1598      2.1127      2.0550      2.0080      1.7388      1.7704    
  1.8557      1.9692      2.0774      2.1524      2.1821      2.1739      2.1471      2.1202      2.1029      2.0954    
  2.0937      2.0954      2.1029      2.1202      2.1471      2.1739      2.1821      2.1524      2.0774      1.9692    
  1.8557      1.7704      1.3874      1.4289      1.5477      1.7217      1.9088      2.0614      2.1524      2.1811    
  2.1677      2.1380      2.1106      2.0934      2.0878      2.0934      2.1106      2.1380      2.1677      2.1811    
  2.1524      2.0614      1.9088      1.7217      1.5477      1.4289      1.0602      1.0986      1.2182      1.4185    
  1.6696      1.9088      2.0774      2.1598      2.1729      2.1480      2.1138      2.0879      2.0786      2.0879    
  2.1138      2.1480      2.1729      2.1598      2.0774      1.9088      1.6696      1.4185      1.2182      1.0986    
 0.88140     0.90010     0.97740      1.1502      1.4185      1.7217      1.9692      2.1127      2.1611      2.1485    
  2.1126      2.0809      2.0688      2.0809      2.1126      2.1485      2.1611      2.1127      1.9692      1.7217    
  1.4185      1.1502     0.97740     0.90010     0.88060     0.86894     0.87424     0.97740      1.2182      1.5477    
  1.8557      2.0550      2.1391      2.1423      2.1089      2.0744      2.0606      2.0744      2.1089      2.1423    
  2.1391      2.0550      1.8557      1.5477      1.2182     0.97740     0.87424     0.86894     0.97077     0.93142    
 0.86894     0.90010      1.0986      1.4289      1.7704      2.0080      2.1186      2.1350      2.1051      2.0700    
  2.0554      2.0700      2.1051      2.1350      2.1186      2.0080      1.7704      1.4289      1.0986     0.90010    
 0.86894     0.93142     0.90059     0.88060     0.86566     0.94784      1.1773      1.5089      1.8290      2.0410    
  2.1338      2.1415      2.1092      2.0746      2.0606      2.0746      2.1092      2.1415      2.1338      2.0410    
  1.8290      1.5089      1.1773     0.94784     0.86566     0.88060     0.88060     0.86894     0.87424     0.97740    
  1.2182      1.5477      1.8557      2.0550      2.1391      2.1423      2.1089      2.0744      2.0606      2.0744    
  2.1089      2.1423      2.1391      2.0550      1.8557      1.5477      1.2182     0.97740     0.87424     0.86894    
 0.86566     0.87424     0.92788      1.0788      1.3408      1.6565      1.9274      2.0911      2.1518      2.1440    
  2.1081      2.0748      2.0618      2.0748      2.1081      2.1440      2.1518      2.0911      1.9274      1.6565    
  1.3408      1.0788     0.92788     0.87424     0.94784     0.97740      1.0788      1.2699      1.5350      1.8111    
  2.0212      2.1346      2.1646      2.1443      2.1075      2.0774      2.0662      2.0774      2.1075      2.1443    
  2.1646      2.1346      2.0212      1.8111      1.5350      1.2699      1.0788     0.97740      1.1773      1.2182    
  1.3408      1.5350      1.7648      1.9709      2.1084      2.1685      2.1696      2.1409      2.1075      2.0837    
  2.0753      2.0837      2.1075      2.1409      2.1696      2.1685      2.1084      1.9709      1.7648      1.5350    
  1.3408      1.2182      1.5089      1.5477      1.6565      1.8111      1.9709      2.0962      2.1655      2.1812    
  2.1625      2.1328      2.1078      2.0930      2.0883      2.0930      2.1078      2.1328      2.1625      2.1812    
  2.1655      2.0962      1.9709      1.8111      1.6565      1.5477      1.8290      1.8557      1.9274      2.0212    
  2.1084      2.1655      2.1840      2.1715      2.1454      2.1217      2.1079      2.1029      2.1021      2.1029    
  2.1079      2.1217      2.1454      2.1715      2.1840      2.1655      2.1084      2.0212      1.9274      1.8557    
  2.0410      2.0550      2.0911      2.1346      2.1685      2.1812      2.1715      2.1485      2.1251      2.1109    
  2.1078      2.1106      2.1125      2.1106      2.1078      2.1109      2.1251      2.1485      2.1715      2.1812    
  2.1685      2.1346      2.0911      2.0550      2.1338      2.1391      2.1518      2.1646      2.1696      2.1625    
  2.1454      2.1251      2.1097      2.1042      2.1075      2.1138      2.1168      2.1138      2.1075      2.1042    
  2.1097      2.1251      2.1454      2.1625      2.1696      2.1646      2.1518      2.1391      2.1415      2.1423    
  2.1440      2.1443      2.1409      2.1328      2.1217      2.1109      2.1042      2.1035      2.1075      2.1126    
  2.1149      2.1126      2.1075      2.1035      2.1042      2.1109      2.1217      2.1328      2.1409      2.1443    
  2.1440      2.1423      2.1092      2.1089      2.1081      2.1075      2.1075      2.1078      2.1079      2.1078    
  2.1075      2.1075      2.1081      2.1089      2.1092      2.1089      2.1081      2.1075      2.1075      2.1078    
  2.1079      2.1078      2.1075      2.1075      2.1081      2.1089      2.0746      2.0744      2.0748      2.0774    
  2.0837      2.0930      2.1029      2.1106      2.1138      2.1126      2.1089      2.1051      2.1036      2.1051    
  2.1089      2.1126      2.1138      2.1106      2.1029      2.0930      2.0837      2.0774      2.0748      2.0744    
  2.0606      2.0606      2.0618      2.0662      2.0753      2.0883      2.1021      2.1125      2.1168      2.1149    
  2.1092      2.1036      2.1013      2.1036      2.1092      2.1149      2.1168      2.1125      2.1021      2.0883    
  2.0753      2.0662      2.0618      2.0606      2.0746      2.0744      2.0748      2.0774      2.0837      2.0930    
  2.1029      2.1106      2.1138      2.1126      2.1089      2.1051      2.1036      2.1051      2.1089      2.1126    
  2.1138      2.1106      2.1029      2.0930      2.0837      2.0774      2.0748      2.0744      2.1092      2.1089    
  2.1081      2.1075      2.1075      2.1078      2.1079      2.1078      2.1075      2.1075      2.1081      2.1089    
  2.1092      2.1089      2.1081      2.1075      2.1075      2.1078      2.1079      2.1078      2.1075      2.1075    
  2.1081      2.1089      2.1415      2.1423      2.1440      2.1443      2.1409      2.1328      2.1217      2.1109    
  2.1042      2.1035      2.1075      2.1126      2.1149      2.1126      2.1075      2.1035      2.1042      2.1109    
  2.1217      2.1328      2.1409      2.1443      2.1440      2.1423      2.1338      2.1391      2.1518      2.1646    
  2.1696      2.1625      2.1454      2.1251      2.1097      2.1042      2.1075      2.1138      2.1168      2.1138    
  2.1075      2.1042      2.1097      2.1251      2.1454      2.1625      2.1696      2.1646      2.1518      2.1391    
  2.0410      2.0550      2.0911      2.1346      2.1685      2.1812      2.1715      2.1485      2.1251      2.1109    
  2.1078      2.1106      2.1125      2.1106      2.1078      2.1109      2.1251      2.1485      2.1715      2.1812    
  2.1685      2.1346      2.0911      2.0550      1.8290      1.8557      1.9274      2.0212      2.1084      2.1655    
  2.1840      2.1715      2.1454      2.1217      2.1079      2.1029      2.1021      2.1029      2.1079      2.1217    
  2.1454      2.1715      2.1840      2.1655      2.1084      2.0212      1.9274      1.8557      1.5089      1.5477    
  1.6565      1.8111      1.9709      2.0962      2.1655      2.1812      2.1625      2.1328      2.1078      2.0930    
  2.0883      2.0930      2.1078      2.1328      2.1625      2.1812      2.1655      2.0962      1.9709      1.8111    
  1.6565      1.5477      1.1773      1.2182      1.3408      1.5350      1.7648      1.9709      2.1084      2.1685    
  2.1696      2.1409      2.1075      2.0837      2.0753      2.0837      2.1075      2.1409      2.1696      2.1685    
  2.1084      1.9709      1.7648      1.5350      1.3408      1.2182     0.94784     0.97740      1.0788      1.2699    
  1.5350      1.8111      2.0212      2.1346      2.1646      2.1443      2.1075      2.0774      2.0662      2.0774    
  2.1075      2.1443      2.1646      2.1346      2.0212      1.8111      1.5350      1.2699      1.0788     0.97740    
 0.86566     0.87424     0.92788      1.0788      1.3408      1.6565      1.9274      2.0911      2.1518      2.1440    
  2.1081      2.0748      2.0618      2.0748      2.1081      2.1440      2.1518      2.0911      1.9274      1.6565    
  1.3408      1.0788     0.92788     0.87424     0.88060     0.86894     0.87424     0.97740      1.2182      1.5477    
  1.8557      2.0550      2.1391      2.1423      2.1089      2.0744      2.0606      2.0744      2.1089      2.1423    
  2.1391      2.0550      1.8557      1.5477      1.2182     0.97740     0.87424     0.86894     0.86742     0.88140    
 0.94784      1.1112      1.3780      1.6891      1.9495      2.1041      2.1595      2.1502      2.1149      2.0828    
  2.0704      2.0828      2.1149      2.1502      2.1595      2.1041      1.9495      1.6891      1.3780      1.1112    
 0.94784     0.88140     0.88140     0.90010     0.97740      1.1502      1.4185      1.7217      1.9692      2.1127    
  2.1611      2.1485      2.1126      2.0809      2.0688      2.0809      2.1126      2.1485      2.1611      2.1127    
  1.9692      1.7217      1.4185      1.1502     0.97740     0.90010     0.94784     0.97740      1.0788      1.2699    
  1.5350      1.8111      2.0212      2.1346      2.1646      2.1443      2.1075      2.0774      2.0662      2.0774    
  2.1075      2.1443      2.1646      2.1346      2.0212      1.8111      1.5350      1.2699      1.0788     0.97740    
  1.1112      1.1502      1.2699      1.4665      1.7078      1.9326      2.0877      2.1601      2.1671      2.1391    
  2.1035      2.0772      2.0677      2.0772      2.1035      2.1391      2.1671      2.1601      2.0877      1.9326    
  1.7078      1.4665      1.2699      1.1502      1.3780      1.4185      1.5350      1.7078      1.8963      2.0521    
  2.1467      2.1781      2.1655      2.1343      2.1042      2.0846      2.0780      2.0846      2.1042      2.1343    
  2.1655      2.1781      2.1467      2.0521      1.8963      1.7078      1.5350      1.4185      1.6891      1.7217    
  1.8111      1.9326      2.0521      2.1398      2.1814      2.1818      2.1587      2.1312      2.1109      2.1002    
  2.0971      2.1002      2.1109      2.1312      2.1587      2.1818      2.1814      2.1398      2.0521      1.9326    
  1.8111      1.7217      1.9495      1.9692      2.0212      2.0877      2.1467      2.1814      2.1871      2.1713    
  2.1483      2.1302      2.1217      2.1202      2.1205      2.1202      2.1217      2.1302      2.1483      2.1713    
  2.1871      2.1814      2.1467      2.0877      2.0212      1.9692      2.1041      2.1127      2.1346      2.1601    
  2.1781      2.1818      2.1713      2.1537      2.1382      2.1312      2.1328      2.1380      2.1406      2.1380    
  2.1328      2.1312      2.1382      2.1537      2.1713      2.1818      2.1781      2.1601      2.1346      2.1127    
  2.1595      2.1611      2.1646      2.1671      2.1655      2.1587      2.1483      2.1382      2.1329      2.1343    
  2.1409      2.1480      2.1511      2.1480      2.1409      2.1343      2.1329      2.1382      2.1483      2.1587    
  2.1655      2.1671      2.1646      2.1611      2.1502      2.1485      2.1443      2.1391      2.1343      2.1312    
  2.1302      2.1312      2.1343      2.1391      2.1443      2.1485      2.1502      2.1485      2.1443      2.1391    
  2.1343      2.1312      2.1302      2.1312      2.1343      2.1391      2.1443      2.1485      2.1149      2.1126    
  2.1075      2.1035      2.1042      2.1109      2.1217      2.1328      2.1409      2.1443      2.1440      2.1423    
  2.1415      2.1423      2.1440      2.1443      2.1409      2.1328      2.1217      2.1109      2.1042      2.1035    
  2.1075      2.1126      2.0828      2.0809      2.0774      2.0772      2.0846      2.1002      2.1202      2.1380    
  2.1480      2.1485      2.1423      2.1350      2.1319      2.1350      2.1423      2.1485      2.1480      2.1380    
  2.1202      2.1002      2.0846      2.0772      2.0774      2.0809      2.0704      2.0688      2.0662      2.0677    
  2.0780      2.0971      2.1205      2.1406      2.1511      2.1502      2.1415      2.1319      2.1278      2.1319    
  2.1415      2.1502      2.1511      2.1406      2.1205      2.0971      2.0780      2.0677      2.0662      2.0688    
  2.0828      2.0809      2.0774      2.0772      2.0846      2.1002      2.1202      2.1380      2.1480      2.1485    
  2.1423      2.1350      2.1319      2.1350      2.1423      2.1485      2.1480      2.1380      2.1202      2.1002    
  2.0846      2.0772      2.0774      2.0809      2.1149      2.1126      2.1075      2.1035      2.1042      2.1109    
  2.1217      2.1328      2.1409      2.1443      2.1440      2.1423      2.1415      2.1423      2.1440      2.1443    
  2.1409      2.1328      2.1217      2.1109      2.1042      2.1035      2.1075      2.1126      2.1502      2.1485    
  2.1443      2.1391      2.1343      2.1312      2.1302      2.1312      2.1343      2.1391      2.1443      2.1485    
  2.1502      2.1485      2.1443      2.1391      2.1343      2.1312      2.1302      2.1312      2.1343      2.1391    
  2.1443      2.1485      2.1595      2.1611      2.1646      2.1671      2.1655      2.1587      2.1483      2.1382    
  2.1329      2.1343      2.1409      2.1480      2.1511      2.1480      2.1409      2.1343      2.1329      2.1382    
  2.1483      2.1587      2.1655      2.1671      2.1646      2.1611      2.1041      2.1127      2.1346      2.1601    
  2.1781      2.1818      2.1713      2.1537      2.1382      2.1312      2.1328      2.1380      2.1406      2.1380    
  2.1328      2.1312      2.1382      2.1537      2.1713      2.1818      2.1781      2.1601      2.1346      2.1127    
  1.9495      1.9692      2.0212      2.0877      2.1467      2.1814      2.1871      2.1713      2.1483      2.1302    
  2.1217      2.1202      2.1205      2.1202      2.1217      2.1302      2.1483      2.1713      2.1871      2.1814    
  2.1467      2.0877      2.0212      1.9692      1.6891      1.7217      1.8111      1.9326      2.0521      2.1398    
  2.1814      2.1818      2.1587      2.1312      2.1109      2.1002      2.0971      2.1002      2.1109      2.1312    
  2.1587      2.1818      2.1814      2.1398      2.0521      1.9326      1.8111      1.7217      1.3780      1.4185    
  1.5350      1.7078      1.8963      2.0521      2.1467      2.1781      2.1655      2.1343      2.1042      2.0846    
  2.0780      2.0846      2.1042      2.1343      2.1655      2.1781      2.1467      2.0521      1.8963      1.7078    
  1.5350      1.4185      1.1112      1.1502      1.2699      1.4665      1.7078      1.9326      2.0877      2.1601    
  2.1671      2.1391      2.1035      2.0772      2.0677      2.0772      2.1035      2.1391      2.1671      2.1601    
  2.0877      1.9326      1.7078      1.4665      1.2699      1.1502     0.94784     0.97740      1.0788      1.2699    
  1.5350      1.8111      2.0212      2.1346      2.1646      2.1443      2.1075      2.0774      2.0662      2.0774    
  2.1075      2.1443      2.1646      2.1346      2.0212      1.8111      1.5350      1.2699      1.0788     0.97740    
 0.88140     0.90010     0.97740      1.1502      1.4185      1.7217      1.9692      2.1127      2.1611      2.1485    
  2.1126      2.0809      2.0688      2.0809      2.1126      2.1485      2.1611      2.1127      1.9692      1.7217    
  1.4185      1.1502     0.97740     0.90010      1.0233      1.0602      1.1773      1.3780      1.6353      1.8856    
  2.0656      2.1564      2.1742      2.1511      2.1168      2.0904      2.0807      2.0904      2.1168      2.1511    
  2.1742      2.1564      2.0656      1.8856      1.6353      1.3780      1.1773      1.0602      1.0602      1.0986    
  1.2182      1.4185      1.6696      1.9088      2.0774      2.1598      2.1729      2.1480      2.1138      2.0879    
  2.0786      2.0879      2.1138      2.1480      2.1729      2.1598      2.0774      1.9088      1.6696      1.4185    
  1.2182      1.0986      1.1773      1.2182      1.3408      1.5350      1.7648      1.9709      2.1084      2.1685    
  2.1696      2.1409      2.1075      2.0837      2.0753      2.0837      2.1075      2.1409      2.1696      2.1685    
  2.1084      1.9709      1.7648      1.5350      1.3408      1.2182      1.3780      1.4185      1.5350      1.7078    
  1.8963      2.0521      2.1467      2.1781      2.1655      2.1343      2.1042      2.0846      2.0780      2.0846    
  2.1042      2.1343      2.1655      2.1781      2.1467      2.0521      1.8963      1.7078      1.5350      1.4185    
  1.6353      1.6696      1.7648      1.8963      2.0281      2.1277      2.1784      2.1839      2.1620      2.1329    
  2.1097      2.0966      2.0925      2.0966      2.1097      2.1329      2.1620      2.1839      2.1784      2.1277    
  2.0281      1.8963      1.7648      1.6696      1.8856      1.9088      1.9709      2.0521      2.1277      2.1774    
  2.1937      2.1829      2.1598      2.1382      2.1251      2.1198      2.1186      2.1198      2.1251      2.1382    
  2.1598      2.1829      2.1937      2.1774      2.1277      2.0521      1.9709      1.9088      2.0656      2.0774    