bcc Na                                  
   4.29060000000000     
     0.943334    0.000000    0.000000
     0.000000    0.943334    0.000000
     0.000000    0.000000    0.943334
   Na
     2
Direct
  0.000000  0.000000  0.000000
  0.500000  0.500000  0.500000
 
   24   24   24
 0.11364000575E+01 0.10692206907E+01 0.92738396124E+00 0.84539610600E+00 0.93407249092E+00
 0.12035508922E+01 0.15608304079E+01 0.18749826031E+01 0.20714099120E+01 0.21571516680E+01
 0.21712719373E+01 0.21581846229E+01 0.21500132314E+01 0.21581846229E+01 0.21712719373E+01
 0.21571516680E+01 0.20714099120E+01 0.18749826031E+01 0.15608304079E+01 0.12035508922E+01
 0.93407249092E+00 0.84539610600E+00 0.92738396124E+00 0.10692206907E+01 0.10692206907E+01
 0.10127011012E+01 0.89812313729E+00 0.84839004353E+00 0.96192624402E+00 0.12416461701E+01
 0.15949869609E+01 0.18975185344E+01 0.20835530474E+01 0.21628263516E+01 0.21740447053E+01
 0.21601496089E+01 0.21518869442E+01 0.21601496089E+01 0.21740447053E+01 0.21628263516E+01
 0.20835530474E+01 0.18975185344E+01 0.15949869609E+01 0.12416461701E+01 0.96192624402E+00
 0.84839004353E+00 0.89812313729E+00 0.10127011012E+01 0.92738396124E+00 0.89812313729E+00
 0.85268119386E+00 0.88309442639E+00 0.10553700036E+01 0.13544476415E+01 0.16904759321E+01
 0.19581940640E+01 0.21152769732E+01 0.21771912196E+01 0.21811021755E+01 0.21655274450E+01
 0.21572167733E+01 0.21655274450E+01 0.21811021755E+01 0.21771912196E+01 0.21152769732E+01
 0.19581940640E+01 0.16904759321E+01 0.13544476415E+01 0.10553700036E+01 0.88309442639E+00
 0.85268119386E+00 0.89812313729E+00 0.84539610600E+00 0.84839004353E+00 0.88309442639E+00
 0.10015282814E+01 0.12292059879E+01 0.15312678613E+01 0.18257712015E+01 0.20386170862E+01
 0.21544989681E+01 0.21935081957E+01 0.21891635027E+01 0.21727938929E+01 0.21649960969E+01
 0.21727938929E+01 0.21891635027E+01 0.21935081957E+01 0.21544989681E+01 0.20386170862E+01
 0.18257712015E+01 0.15312678613E+01 0.12292059879E+01 0.10015282814E+01 0.88309442639E+00
 0.84839004353E+00 0.93407249092E+00 0.96192624402E+00 0.10553700036E+01 0.12292059879E+01
 0.14738671904E+01 0.17420028371E+01 0.19679425967E+01 0.21156777658E+01 0.21870723723E+01
 0.22041531409E+01 0.21942978707E+01 0.21796469402E+01 0.21733512024E+01 0.21796469402E+01
 0.21942978707E+01 0.22041531409E+01 0.21870723723E+01 0.21156777658E+01 0.19679425967E+01
 0.17420028371E+01 0.14738671904E+01 0.12292059879E+01 0.10553700036E+01 0.96192624402E+00
 0.12035508922E+01 0.12416461701E+01 0.13544476415E+01 0.15312678613E+01 0.17420028371E+01
 0.19394366577E+01 0.20860301820E+01 0.21705640257E+01 0.22031008356E+01 0.22043144807E+01
 0.21937000384E+01 0.21836623289E+01 0.21798325951E+01 0.21836623289E+01 0.21937000384E+01
 0.22043144807E+01 0.22031008356E+01 0.21705640257E+01 0.20860301820E+01 0.19394366577E+01
 0.17420028371E+01 0.15312678613E+01 0.13544476415E+01 0.12416461701E+01 0.15608304079E+01
 0.15949869609E+01 0.16904759321E+01 0.18257712015E+01 0.19679425967E+01 0.20860301820E+01
 0.21620813337E+01 0.21959788974E+01 0.22011360643E+01 0.21943304755E+01 0.21870746546E+01
 0.21832700291E+01 0.21822820897E+01 0.21832700291E+01 0.21870746546E+01 0.21943304755E+01
 0.22011360643E+01 0.21959788974E+01 0.21620813337E+01 0.20860301820E+01 0.19679425967E+01
 0.18257712015E+01 0.16904759321E+01 0.15949869609E+01 0.18749826031E+01 0.18975185344E+01
 0.19581940640E+01 0.20386170862E+01 0.21156777658E+01 0.21705640257E+01 0.21959788974E+01
 0.21974449327E+01 0.21879006854E+01 0.21793111511E+01 0.21768130889E+01 0.21785163706E+01
 0.21798325951E+01 0.21785163706E+01 0.21768130889E+01 0.21793111511E+01 0.21879006854E+01
 0.21974449327E+01 0.21959788974E+01 0.21705640257E+01 0.21156777658E+01 0.20386170862E+01
 0.19581940640E+01 0.18975185344E+01 0.20714099120E+01 0.20835530474E+01 0.21152769732E+01
 0.21544989681E+01 0.21870723723E+01 0.22031008356E+01 0.22011360643E+01 0.21879006854E+01
 0.21736638916E+01 0.21661401718E+01 0.21667037835E+01 0.21710399339E+01 0.21733512024E+01
 0.21710399339E+01 0.21667037835E+01 0.21661401718E+01 0.21736638916E+01 0.21879006854E+01
 0.22011360643E+01 0.22031008356E+01 0.21870723723E+01 0.21544989681E+01 0.21152769732E+01
 0.20835530474E+01 0.21571516680E+01 0.21628263516E+01 0.21771912196E+01 0.21935081957E+01
 0.22041531409E+01 0.22043144807E+01 0.21943304755E+01 0.21793111511E+01 0.21661401718E+01
 0.21595770399E+01 0.21598455001E+01 0.21631971714E+01 0.21649960969E+01 0.21631971714E+01
 0.21598455001E+01 0.21595770399E+01 0.21661401718E+01 0.21793111511E+01 0.21943304755E+01
 0.22043144807E+01 0.22041531409E+01 0.21935081957E+01 0.21771912196E+01 0.21628263516E+01
 0.21712719373E+01 0.21740447053E+01 0.21811021755E+01 0.21891635027E+01 0.21942978707E+01
 0.21937000384E+01 0.21870746546E+01 0.21768130889E+01 0.21667037835E+01 0.21598455001E+01
 0.21570691794E+01 0.21569251836E+01 0.21572167733E+01 0.21569251836E+01 0.21570691794E+01
 0.21598455001E+01 0.21667037835E+01 0.21768130889E+01 0.21870746546E+01 0.21937000384E+01
 0.21942978707E+01 0.21891635027E+01 0.21811021755E+01 0.21740447053E+01 0.21581846229E+01
 0.21601496089E+01 0.21655274450E+01 0.21727938929E+01 0.21796469402E+01 0.21836623289E+01
 0.21832700291E+01 0.21785163706E+01 0.21710399339E+01 0.21631971714E+01 0.21569251836E+01
 0.21531259428E+01 0.21518869442E+01 0.21531259428E+01 0.21569251836E+01 0.21631971714E+01
 0.21710399339E+01 0.21785163706E+01 0.21832700291E+01 0.21836623289E+01 0.21796469402E+01
 0.21727938929E+01 0.21655274450E+01 0.21601496089E+01 0.21500132314E+01 0.21518869442E+01
 0.21572167733E+01 0.21649960969E+01 0.21733512024E+01 0.21798325951E+01 0.21822820897E+01
 0.21798325951E+01 0.21733512024E+01 0.21649960969E+01 0.21572167733E+01 0.21518869442E+01
 0.21500132314E+01 0.21518869442E+01 0.21572167733E+01 0.21649960969E+01 0.21733512024E+01
 0.21798325951E+01 0.21822820897E+01 0.21798325951E+01 0.21733512024E+01 0.21649960969E+01
 0.21572167733E+01 0.21518869442E+01 0.21581846229E+01 0.21601496089E+01 0.21655274450E+01
 0.21727938929E+01 0.21796469402E+01 0.21836623289E+01 0.21832700291E+01 0.21785163706E+01
 0.21710399339E+01 0.21631971714E+01 0.21569251836E+01 0.21531259428E+01 0.21518869442E+01
 0.21531259428E+01 0.21569251836E+01 0.21631971714E+01 0.21710399339E+01 0.21785163706E+01
 0.21832700291E+01 0.21836623289E+01 0.21796469402E+01 0.21727938929E+01 0.21655274450E+01
 0.21601496089E+01 0.21712719373E+01 0.21740447053E+01 0.21811021755E+01 0.21891635027E+01
 0.21942978707E+01 0.21937000384E+01 0.21870746546E+01 0.21768130889E+01 0.21667037835E+01
 0.21598455001E+01 0.21570691794E+01 0.21569251836E+01 0.21572167733E+01 0.21569251836E+01
 0.21570691794E+01 0.21598455001E+01 0.21667037835E+01 0.21768130889E+01 0.21870746546E+01
 0.21937000384E+01 0.21942978707E+01 0.21891635027E+01 0.21811021755E+01 0.21740447053E+01
 0.21571516680E+01 0.21628263516E+01 0.21771912196E+01 0.21935081957E+01 0.22041531409E+01
 0.22043144807E+01 0.21943304755E+01 0.21793111511E+01 0.21661401718E+01 0.21595770399E+01
 0.21598455001E+01 0.21631971714E+01 0.21649960969E+01 0.21631971714E+01 0.21598455001E+01
 0.21595770399E+01 0.21661401718E+01 0.21793111511E+01 0.21943304755E+01 0.22043144807E+01
 0.22041531409E+01 0.21935081957E+01 0.21771912196E+01 0.21628263516E+01 0.20714099120E+01
 0.20835530474E+01 0.21152769732E+01 0.21544989681E+01 0.21870723723E+01 0.22031008356E+01
 0.22011360643E+01 0.21879006854E+01 0.21736638916E+01 0.21661401718E+01 0.21667037835E+01
 0.21710399339E+01 0.21733512024E+01 0.21710399339E+01 0.21667037835E+01 0.21661401718E+01
 0.21736638916E+01 0.21879006854E+01 0.22011360643E+01 0.22031008356E+01 0.21870723723E+01
 0.21544989681E+01 0.21152769732E+01 0.20835530474E+01 0.18749826031E+01 0.18975185344E+01
 0.19581940640E+01 0.20386170862E+01 0.21156777658E+01 0.21705640257E+01 0.21959788974E+01
 0.21974449327E+01 0.21879006854E+01 0.21793111511E+01 0.21768130889E+01 0.21785163706E+01
 0.21798325951E+01 0.21785163706E+01 0.21768130889E+01 0.21793111511E+01 0.21879006854E+01
 0.21974449327E+01 0.21959788974E+01 0.21705640257E+01 0.21156777658E+01 0.20386170862E+01
 0.19581940640E+01 0.18975185344E+01 0.15608304079E+01 0.15949869609E+01 0.16904759321E+01
 0.18257712015E+01 0.19679425967E+01 0.20860301820E+01 0.21620813337E+01 0.21959788974E+01
 0.22011360643E+01 0.21943304755E+01 0.21870746546E+01 0.21832700291E+01 0.21822820897E+01
 0.21832700291E+01 0.21870746546E+01 0.21943304755E+01 0.22011360643E+01 0.21959788974E+01
 0.21620813337E+01 0.20860301820E+01 0.19679425967E+01 0.18257712015E+01 0.16904759321E+01
 0.15949869609E+01 0.12035508922E+01 0.12416461701E+01 0.13544476415E+01 0.15312678613E+01
 0.17420028371E+01 0.19394366577E+01 0.20860301820E+01 0.21705640257E+01 0.22031008356E+01
 0.22043144807E+01 0.21937000384E+01 0.21836623289E+01 0.21798325951E+01 0.21836623289E+01
 0.21937000384E+01 0.22043144807E+01 0.22031008356E+01 0.21705640257E+01 0.20860301820E+01
 0.19394366577E+01 0.17420028371E+01 0.15312678613E+01 0.13544476415E+01 0.12416461701E+01
 0.93407249092E+00 0.96192624402E+00 0.10553700036E+01 0.12292059879E+01 0.14738671904E+01
 0.17420028371E+01 0.19679425967E+01 0.21156777658E+01 0.21870723723E+01 0.22041531409E+01
 0.21942978707E+01 0.21796469402E+01 0.21733512024E+01 0.21796469402E+01 0.21942978707E+01
 0.22041531409E+01 0.21870723723E+01 0.21156777658E+01 0.19679425967E+01 0.17420028371E+01
 0.14738671904E+01 0.12292059879E+01 0.10553700036E+01 0.96192624402E+00 0.84539610600E+00
 0.84839004353E+00 0.88309442639E+00 0.10015282814E+01 0.12292059879E+01 0.15312678613E+01
 0.18257712015E+01 0.20386170862E+01 0.21544989681E+01 0.21935081957E+01 0.21891635027E+01
 0.21727938929E+01 0.21649960969E+01 0.21727938929E+01 0.21891635027E+01 0.21935081957E+01
 0.21544989681E+01 0.20386170862E+01 0.18257712015E+01 0.15312678613E+01 0.12292059879E+01
 0.10015282814E+01 0.88309442639E+00 0.84839004353E+00 0.92738396124E+00 0.89812313729E+00
 0.85268119386E+00 0.88309442639E+00 0.10553700036E+01 0.13544476415E+01 0.16904759321E+01
 0.19581940640E+01 0.21152769732E+01 0.21771912196E+01 0.21811021755E+01 0.21655274450E+01
 0.21572167733E+01 0.21655274450E+01 0.21811021755E+01 0.21771912196E+01 0.21152769732E+01
 0.19581940640E+01 0.16904759321E+01 0.13544476415E+01 0.10553700036E+01 0.88309442639E+00
 0.85268119386E+00 0.89812313729E+00 0.10692206907E+01 0.10127011012E+01 0.89812313729E+00
 0.84839004353E+00 0.96192624402E+00 0.12416461701E+01 0.15949869609E+01 0.18975185344E+01
 0.20835530474E+01 0.21628263516E+01 0.21740447053E+01 0.21601496089E+01 0.21518869442E+01
 0.21601496089E+01 0.21740447053E+01 0.21628263516E+01 0.20835530474E+01 0.18975185344E+01
 0.15949869609E+01 0.12416461701E+01 0.96192624402E+00 0.84839004353E+00 0.89812313729E+00
 0.10127011012E+01 0.10692206907E+01 0.10127011012E+01 0.89812313729E+00 0.84839004353E+00
 0.96192624402E+00 0.12416461701E+01 0.15949869609E+01 0.18975185344E+01 0.20835530474E+01
 0.21628263516E+01 0.21740447053E+01 0.21601496089E+01 0.21518869442E+01 0.21601496089E+01
 0.21740447053E+01 0.21628263516E+01 0.20835530474E+01 0.18975185344E+01 0.15949869609E+01
 0.12416461701E+01 0.96192624402E+00 0.84839004353E+00 0.89812313729E+00 0.10127011012E+01
 0.10127011012E+01 0.96603231900E+00 0.87653278455E+00 0.85615006563E+00 0.99171829095E+00
 0.12795755031E+01 0.16278672463E+01 0.19186241767E+01 0.20945305700E+01 0.21675922485E+01
 0.21760773892E+01 0.21614567928E+01 0.21531259428E+01 0.21614567928E+01 0.21760773892E+01
 0.21675922485E+01 0.20945305700E+01 0.19186241767E+01 0.16278672463E+01 0.12795755031E+01
 0.99171829095E+00 0.85615006563E+00 0.87653278455E+00 0.96603231900E+00 0.89812313729E+00
 0.87653278455E+00 0.85031897019E+00 0.90236190559E+00 0.10892706823E+01 0.13911330249E+01
 0.17194698666E+01 0.19753848015E+01 0.21231904675E+01 0.21796562651E+01 0.21813151698E+01
 0.21652419188E+01 0.21569251836E+01 0.21652419188E+01 0.21813151698E+01 0.21796562651E+01
 0.21231904675E+01 0.19753848015E+01 0.17194698666E+01 0.13911330249E+01 0.10892706823E+01
 0.90236190559E+00 0.85031897019E+00 0.87653278455E+00 0.84839004353E+00 0.85615006563E+00
 0.90236190559E+00 0.10324382867E+01 0.12655120962E+01 0.15641174916E+01 0.18484083424E+01
 0.20504517369E+01 0.21585729743E+01 0.21933495992E+01 0.21874690036E+01 0.21709184316E+01
 0.21631971714E+01 0.21709184316E+01 0.21874690036E+01 0.21933495992E+01 0.21585729743E+01
 0.20504517369E+01 0.18484083424E+01 0.15641174916E+01 0.12655120962E+01 0.10324382867E+01
 0.90236190559E+00 0.85615006563E+00 0.96192624402E+00 0.99171829095E+00 0.10892706823E+01
 0.12655120962E+01 0.15075924433E+01 0.17676625169E+01 0.19830926401E+01 0.21221341299E+01
 0.21878779835E+01 0.22022429174E+01 0.21916761474E+01 0.21771791473E+01 0.21710399339E+01
 0.21771791473E+01 0.21916761474E+01 0.22022429174E+01 0.21878779835E+01 0.21221341299E+01
 0.19830926401E+01 0.17676625169E+01 0.15075924433E+01 0.12655120962E+01 0.10892706823E+01
 0.99171829095E+00 0.12416461701E+01 0.12795755031E+01 0.13911330249E+01 0.15641174916E+01
 0.17676625169E+01 0.19558808454E+01 0.20942579243E+01 0.21729179633E+01 0.22022097290E+01
 0.22022802038E+01 0.21917364421E+01 0.21821326791E+01 0.21785163706E+01 0.21821326791E+01
 0.21917364421E+01 0.22022802038E+01 0.22022097290E+01 0.21729179633E+01 0.20942579243E+01
 0.19558808454E+01 0.17676625169E+01 0.15641174916E+01 0.13911330249E+01 0.12795755031E+01
 0.15949869609E+01 0.16278672463E+01 0.17194698666E+01 0.18484083424E+01 0.19830926401E+01
 0.20942579243E+01 0.21651754600E+01 0.21961867536E+01 0.22003805062E+01 0.21937996163E+01
 0.21872229025E+01 0.21840240659E+01 0.21832700291E+01 0.21840240659E+01 0.21872229025E+01
 0.21937996163E+01 0.22003805062E+01 0.21961867536E+01 0.21651754600E+01 0.20942579243E+01
 0.19830926401E+01 0.18484083424E+01 0.17194698666E+01 0.16278672463E+01 0.18975185344E+01
 0.19186241767E+01 0.19753848015E+01 0.20504517369E+01 0.21221341299E+01 0.21729179633E+01
 0.21961867536E+01 0.21973396275E+01 0.21886313304E+01 0.21812456005E+01 0.21797843369E+01
 0.21821326791E+01 0.21836623289E+01 0.21821326791E+01 0.21797843369E+01 0.21812456005E+01
 0.21886313304E+01 0.21973396275E+01 0.21961867536E+01 0.21729179633E+01 0.21221341299E+01
 0.20504517369E+01 0.19753848015E+01 0.19186241767E+01 0.20835530474E+01 0.20945305700E+01
 0.21231904675E+01 0.21585729743E+01 0.21878779835E+01 0.22022097290E+01 0.22003805062E+01
 0.21886313304E+01 0.21763774378E+01 0.21705870792E+01 0.21722844414E+01 0.21771791473E+01
 0.21796469402E+01 0.21771791473E+01 0.21722844414E+01 0.21705870792E+01 0.21763774378E+01
 0.21886313304E+01 0.22003805062E+01 0.22022097290E+01 0.21878779835E+01 0.21585729743E+01
 0.21231904675E+01 0.20945305700E+01 0.21628263516E+01 0.21675922485E+01 0.21796562651E+01
 0.21933495992E+01 0.22022429174E+01 0.22022802038E+01 0.21937996163E+01 0.21812456005E+01
 0.21705870792E+01 0.21658941539E+01 0.21671842373E+01 0.21709184316E+01 0.21727938929E+01
 0.21709184316E+01 0.21671842373E+01 0.21658941539E+01 0.21705870792E+01 0.21812456005E+01
 0.21937996163E+01 0.22022802038E+01 0.22022429174E+01 0.21933495992E+01 0.21796562651E+01
 0.21675922485E+01 0.21740447053E+01 0.21760773892E+01 0.21813151698E+01 0.21874690036E+01
 0.21916761474E+01 0.21917364421E+01 0.21872229025E+01 0.21797843369E+01 0.21722844414E+01
 0.21671842373E+01 0.21652085917E+01 0.21652419188E+01 0.21655274450E+01 0.21652419188E+01
 0.21652085917E+01 0.21671842373E+01 0.21722844414E+01 0.21797843369E+01 0.21872229025E+01
 0.21917364421E+01 0.21916761474E+01 0.21874690036E+01 0.21813151698E+01 0.21760773892E+01
 0.21601496089E+01 0.21614567928E+01 0.21652419188E+01 0.21709184316E+01 0.21771791473E+01
 0.21821326791E+01 0.21840240659E+01 0.21821326791E+01 0.21771791473E+01 0.21709184316E+01
 0.21652419188E+01 0.21614567928E+01 0.21601496089E+01 0.21614567928E+01 0.21652419188E+01
 0.21709184316E+01 0.21771791473E+01 0.21821326791E+01 0.21840240659E+01 0.21821326791E+01
 0.21771791473E+01 0.21709184316E+01 0.21652419188E+01 0.21614567928E+01 0.21518869442E+01
 0.21531259428E+01 0.21569251836E+01 0.21631971714E+01 0.21710399339E+01 0.21785163706E+01
 0.21832700291E+01 0.21836623289E+01 0.21796469402E+01 0.21727938929E+01 0.21655274450E+01
 0.21601496089E+01 0.21581846229E+01 0.21601496089E+01 0.21655274450E+01 0.21727938929E+01
 0.21796469402E+01 0.21836623289E+01 0.21832700291E+01 0.21785163706E+01 0.21710399339E+01
 0.21631971714E+01 0.21569251836E+01 0.21531259428E+01 0.21601496089E+01 0.21614567928E+01
 0.21652419188E+01 0.21709184316E+01 0.21771791473E+01 0.21821326791E+01 0.21840240659E+01
 0.21821326791E+01 0.21771791473E+01 0.21709184316E+01 0.21652419188E+01 0.21614567928E+01
 0.21601496089E+01 0.21614567928E+01 0.21652419188E+01 0.21709184316E+01 0.21771791473E+01
 0.21821326791E+01 0.21840240659E+01 0.21821326791E+01 0.21771791473E+01 0.21709184316E+01
 0.21652419188E+01 0.21614567928E+01 0.21740447053E+01 0.21760773892E+01 0.21813151698E+01
 0.21874690036E+01 0.21916761474E+01 0.21917364421E+01 0.21872229025E+01 0.21797843369E+01
 0.21722844414E+01 0.21671842373E+01 0.21652085917E+01 0.21652419188E+01 0.21655274450E+01
 0.21652419188E+01 0.21652085917E+01 0.21671842373E+01 0.21722844414E+01 0.21797843369E+01
 0.21872229025E+01 0.21917364421E+01 0.21916761474E+01 0.21874690036E+01 0.21813151698E+01
 0.21760773892E+01 0.21628263516E+01 0.21675922485E+01 0.21796562651E+01 0.21933495992E+01
 0.22022429174E+01 0.22022802038E+01 0.21937996163E+01 0.21812456005E+01 0.21705870792E+01
 0.21658941539E+01 0.21671842373E+01 0.21709184316E+01 0.21727938929E+01 0.21709184316E+01
 0.21671842373E+01 0.21658941539E+01 0.21705870792E+01 0.21812456005E+01 0.21937996163E+01
 0.22022802038E+01 0.22022429174E+01 0.21933495992E+01 0.21796562651E+01 0.21675922485E+01
 0.20835530474E+01 0.20945305700E+01 0.21231904675E+01 0.21585729743E+01 0.21878779835E+01
 0.22022097290E+01 0.22003805062E+01 0.21886313304E+01 0.21763774378E+01 0.21705870792E+01
 0.21722844414E+01 0.21771791473E+01 0.21796469402E+01 0.21771791473E+01 0.21722844414E+01
 0.21705870792E+01 0.21763774378E+01 0.21886313304E+01 0.22003805062E+01 0.22022097290E+01
 0.21878779835E+01 0.21585729743E+01 0.21231904675E+01 0.20945305700E+01 0.18975185344E+01
 0.19186241767E+01 0.19753848015E+01 0.20504517369E+01 0.21221341299E+01 0.21729179633E+01
 0.21961867536E+01 0.21973396275E+01 0.21886313304E+01 0.21812456005E+01 0.21797843369E+01
 0.21821326791E+01 0.21836623289E+01 0.21821326791E+01 0.21797843369E+01 0.21812456005E+01
 0.21886313304E+01 0.21973396275E+01 0.21961867536E+01 0.21729179633E+01 0.21221341299E+01
 0.20504517369E+01 0.19753848015E+01 0.19186241767E+01 0.15949869609E+01 0.16278672463E+01
 0.17194698666E+01 0.18484083424E+01 0.19830926401E+01 0.20942579243E+01 0.21651754600E+01
 0.21961867536E+01 0.22003805062E+01 0.21937996163E+01 0.21872229025E+01 0.21840240659E+01
 0.21832700291E+01 0.21840240659E+01 0.21872229025E+01 0.21937996163E+01 0.22003805062E+01
 0.21961867536E+01 0.21651754600E+01 0.20942579243E+01 0.19830926401E+01 0.18484083424E+01
 0.17194698666E+01 0.16278672463E+01 0.12416461701E+01 0.12795755031E+01 0.13911330249E+01
 0.15641174916E+01 0.17676625169E+01 0.19558808454E+01 0.20942579243E+01 0.21729179633E+01
 0.22022097290E+01 0.22022802038E+01 0.21917364421E+01 0.21821326791E+01 0.21785163706E+01
 0.21821326791E+01 0.21917364421E+01 0.22022802038E+01 0.22022097290E+01 0.21729179633E+01
 0.20942579243E+01 0.19558808454E+01 0.17676625169E+01 0.15641174916E+01 0.13911330249E+01
 0.12795755031E+01 0.96192624402E+00 0.99171829095E+00 0.10892706823E+01 0.12655120962E+01
 0.15075924433E+01 0.17676625169E+01 0.19830926401E+01 0.21221341299E+01 0.21878779835E+01
 0.22022429174E+01 0.21916761474E+01 0.21771791473E+01 0.21710399339E+01 0.21771791473E+01
 0.21916761474E+01 0.22022429174E+01 0.21878779835E+01 0.21221341299E+01 0.19830926401E+01
 0.17676625169E+01 0.15075924433E+01 0.12655120962E+01 0.10892706823E+01 0.99171829095E+00
 0.84839004353E+00 0.85615006563E+00 0.90236190559E+00 0.10324382867E+01 0.12655120962E+01
 0.15641174916E+01 0.18484083424E+01 0.20504517369E+01 0.21585729743E+01 0.21933495992E+01
 0.21874690036E+01 0.21709184316E+01 0.21631971714E+01 0.21709184316E+01 0.21874690036E+01
 0.21933495992E+01 0.21585729743E+01 0.20504517369E+01 0.18484083424E+01 0.15641174916E+01
 0.12655120962E+01 0.10324382867E+01 0.90236190559E+00 0.85615006563E+00 0.89812313729E+00
 0.87653278455E+00 0.85031897019E+00 0.90236190559E+00 0.10892706823E+01 0.13911330249E+01
 0.17194698666E+01 0.19753848015E+01 0.21231904675E+01 0.21796562651E+01 0.21813151698E+01
 0.21652419188E+01 0.21569251836E+01 0.21652419188E+01 0.21813151698E+01 0.21796562651E+01
 0.21231904675E+01 0.19753848015E+01 0.17194698666E+01 0.13911330249E+01 0.10892706823E+01
 0.90236190559E+00 0.85031897019E+00 0.87653278455E+00 0.10127011012E+01 0.96603231900E+00
 0.87653278455E+00 0.85615006563E+00 0.99171829095E+00 0.12795755031E+01 0.16278672463E+01
 0.19186241767E+01 0.20945305700E+01 0.21675922485E+01 0.21760773892E+01 0.21614567928E+01
 0.21531259428E+01 0.21614567928E+01 0.21760773892E+01 0.21675922485E+01 0.20945305700E+01
 0.19186241767E+01 0.16278672463E+01 0.12795755031E+01 0.99171829095E+00 0.85615006563E+00
 0.87653278455E+00 0.96603231900E+00 0.92738396124E+00 0.89812313729E+00 0.85268119386E+00
 0.88309442639E+00 0.10553700036E+01 0.13544476415E+01 0.16904759321E+01 0.19581940640E+01
 0.21152769732E+01 0.21771912196E+01 0.21811021755E+01 0.21655274450E+01 0.21572167733E+01
 0.21655274450E+01 0.21811021755E+01 0.21771912196E+01 0.21152769732E+01 0.19581940640E+01
 0.16904759321E+01 0.13544476415E+01 0.10553700036E+01 0.88309442639E+00 0.85268119386E+00
 0.89812313729E+00 0.89812313729E+00 0.87653278455E+00 0.85031897019E+00 0.90236190559E+00
 0.10892706823E+01 0.13911330249E+01 0.17194698666E+01 0.19753848015E+01 0.21231904675E+01
 0.21796562651E+01 0.21813151698E+01 0.21652419188E+01 0.21569251836E+01 0.21652419188E+01
 0.21813151698E+01 0.21796562651E+01 0.21231904675E+01 0.19753848015E+01 0.17194698666E+01
 0.13911330249E+01 0.10892706823E+01 0.90236190559E+00 0.85031897019E+00 0.87653278455E+00
 0.85268119386E+00 0.85031897019E+00 0.87176495311E+00 0.97581122935E+00 0.11948180275E+01
 0.14971970990E+01 0.17994478187E+01 0.20214867145E+01 0.21438386212E+01 0.21859365357E+01
 0.21821200518E+01 0.21652085917E+01 0.21570691794E+01 0.21652085917E+01 0.21821200518E+01
 0.21859365357E+01 0.21438386212E+01 0.20214867145E+01 0.17994478187E+01 0.14971970990E+01
 0.11948180275E+01 0.97581122935E+00 0.87176495311E+00 0.85031897019E+00 0.88309442639E+00
 0.90236190559E+00 0.97581122935E+00 0.11317582019E+01 0.13732395638E+01 0.16570092222E+01
 0.19101632201E+01 0.20821161484E+01 0.21692946844E+01 0.21931510342E+01 0.21837470956E+01
 0.21671842373E+01 0.21598455001E+01 0.21671842373E+01 0.21837470956E+01 0.21931510342E+01
 0.21692946844E+01 0.20821161484E+01 0.19101632201E+01 0.16570092222E+01 0.13732395638E+01
 0.11317582019E+01 0.97581122935E+00 0.90236190559E+00 0.10553700036E+01 0.10892706823E+01
 0.11948180275E+01 0.13732395638E+01 0.16038514184E+01 0.18384560107E+01 0.20241780882E+01
 0.21395050953E+01 0.21903228516E+01 0.21979211802E+01 0.21859833069E+01 0.21722844414E+01
 0.21667037835E+01 0.21722844414E+01 0.21859833069E+01 0.21979211802E+01 0.21903228516E+01
 0.21395050953E+01 0.20241780882E+01 0.18384560107E+01 0.16038514184E+01 0.13732395638E+01
 0.11948180275E+01 0.10892706823E+01 0.13544476415E+01 0.13911330249E+01 0.14971970990E+01
 0.16570092222E+01 0.18384560107E+01 0.20006607343E+01 0.21165831868E+01 0.21795984084E+01
 0.22005702476E+01 0.21980087683E+01 0.21880065240E+01 0.21797843369E+01 0.21768130889E+01
 0.21797843369E+01 0.21880065240E+01 0.21980087683E+01 0.22005702476E+01 0.21795984084E+01
 0.21165831868E+01 0.20006607343E+01 0.18384560107E+01 0.16570092222E+01 0.14971970990E+01
 0.13911330249E+01 0.16904759321E+01 0.17194698666E+01 0.17994478187E+01 0.19101632201E+01
 0.20241780882E+01 0.21165831868E+01 0.21738801428E+01 0.21974618654E+01 0.21993626675E+01
 0.21935495971E+01 0.21888286858E+01 0.21872229025E+01 0.21870746546E+01 0.21872229025E+01
 0.21888286858E+01 0.21935495971E+01 0.21993626675E+01 0.21974618654E+01 0.21738801428E+01
 0.21165831868E+01 0.20241780882E+01 0.19101632201E+01 0.17994478187E+01 0.17194698666E+01
 0.19581940640E+01 0.19753848015E+01 0.20214867145E+01 0.20821161484E+01 0.21395050953E+01
 0.21795984084E+01 0.21974618654E+01 0.21979926673E+01 0.21915029573E+01 0.21870817402E+01
 0.21880065240E+01 0.21917364421E+01 0.21937000384E+01 0.21917364421E+01 0.21880065240E+01
 0.21870817402E+01 0.21915029573E+01 0.21979926673E+01 0.21974618654E+01 0.21795984084E+01
 0.21395050953E+01 0.20821161484E+01 0.20214867145E+01 0.19753848015E+01 0.21152769732E+01
 0.21231904675E+01 0.21438386212E+01 0.21692946844E+01 0.21903228516E+01 0.22005702476E+01
 0.21993626675E+01 0.21915029573E+01 0.21840743221E+01 0.21821346870E+01 0.21859833069E+01
 0.21916761474E+01 0.21942978707E+01 0.21916761474E+01 0.21859833069E+01 0.21821346870E+01
 0.21840743221E+01 0.21915029573E+01 0.21993626675E+01 0.22005702476E+01 0.21903228516E+01
 0.21692946844E+01 0.21438386212E+01 0.21231904675E+01 0.21771912196E+01 0.21796562651E+01
 0.21859365357E+01 0.21931510342E+01 0.21979211802E+01 0.21980087683E+01 0.21935495971E+01
 0.21870817402E+01 0.21821346870E+01 0.21810996454E+01 0.21837470956E+01 0.21874690036E+01
 0.21891635027E+01 0.21874690036E+01 0.21837470956E+01 0.21810996454E+01 0.21821346870E+01
 0.21870817402E+01 0.21935495971E+01 0.21980087683E+01 0.21979211802E+01 0.21931510342E+01
 0.21859365357E+01 0.21796562651E+01 0.21811021755E+01 0.21813151698E+01 0.21821200518E+01
 0.21837470956E+01 0.21859833069E+01 0.21880065240E+01 0.21888286858E+01 0.21880065240E+01
 0.21859833069E+01 0.21837470956E+01 0.21821200518E+01 0.21813151698E+01 0.21811021755E+01
 0.21813151698E+01 0.21821200518E+01 0.21837470956E+01 0.21859833069E+01 0.21880065240E+01
 0.21888286858E+01 0.21880065240E+01 0.21859833069E+01 0.21837470956E+01 0.21821200518E+01
 0.21813151698E+01 0.21655274450E+01 0.21652419188E+01 0.21652085917E+01 0.21671842373E+01
 0.21722844414E+01 0.21797843369E+01 0.21872229025E+01 0.21917364421E+01 0.21916761474E+01
 0.21874690036E+01 0.21813151698E+01 0.21760773892E+01 0.21740447053E+01 0.21760773892E+01
 0.21813151698E+01 0.21874690036E+01 0.21916761474E+01 0.21917364421E+01 0.21872229025E+01
 0.21797843369E+01 0.21722844414E+01 0.21671842373E+01 0.21652085917E+01 0.21652419188E+01
 0.21572167733E+01 0.21569251836E+01 0.21570691794E+01 0.21598455001E+01 0.21667037835E+01
 0.21768130889E+01 0.21870746546E+01 0.21937000384E+01 0.21942978707E+01 0.21891635027E+01
 0.21811021755E+01 0.21740447053E+01 0.21712719373E+01 0.21740447053E+01 0.21811021755E+01
 0.21891635027E+01 0.21942978707E+01 0.21937000384E+01 0.21870746546E+01 0.21768130889E+01
 0.21667037835E+01 0.21598455001E+01 0.21570691794E+01 0.21569251836E+01 0.21655274450E+01
 0.21652419188E+01 0.21652085917E+01 0.21671842373E+01 0.21722844414E+01 0.21797843369E+01
 0.21872229025E+01 0.21917364421E+01 0.21916761474E+01 0.21874690036E+01 0.21813151698E+01
 0.21760773892E+01 0.21740447053E+01 0.21760773892E+01 0.21813151698E+01 0.21874690036E+01
 0.21916761474E+01 0.21917364421E+01 0.21872229025E+01 0.21797843369E+01 0.21722844414E+01
 0.21671842373E+01 0.21652085917E+01 0.21652419188E+01 0.21811021755E+01 0.21813151698E+01
 0.21821200518E+01 0.21837470956E+01 0.21859833069E+01 0.21880065240E+01 0.21888286858E+01
 0.21880065240E+01 0.21859833069E+01 0.21837470956E+01 0.21821200518E+01 0.21813151698E+01
 0.21811021755E+01 0.21813151698E+01 0.21821200518E+01 0.21837470956E+01 0.21859833069E+01
 0.21880065240E+01 0.21888286858E+01 0.21880065240E+01 0.21859833069E+01 0.21837470956E+01
 0.21821200518E+01 0.21813151698E+01 0.21771912196E+01 0.21796562651E+01 0.21859365357E+01
 0.21931510342E+01 0.21979211802E+01 0.21980087683E+01 0.21935495971E+01 0.21870817402E+01
 0.21821346870E+01 0.21810996454E+01 0.21837470956E+01 0.21874690036E+01 0.21891635027E+01
 0.21874690036E+01 0.21837470956E+01 0.21810996454E+01 0.21821346870E+01 0.21870817402E+01
 0.21935495971E+01 0.21980087683E+01 0.21979211802E+01 0.21931510342E+01 0.21859365357E+01
 0.21796562651E+01 0.21152769732E+01 0.21231904675E+01 0.21438386212E+01 0.21692946844E+01
 0.21903228516E+01 0.22005702476E+01 0.21993626675E+01 0.21915029573E+01 0.21840743221E+01
 0.21821346870E+01 0.21859833069E+01 0.21916761474E+01 0.21942978707E+01 0.21916761474E+01
 0.21859833069E+01 0.21821346870E+01 0.21840743221E+01 0.21915029573E+01 0.21993626675E+01
 0.22005702476E+01 0.21903228516E+01 0.21692946844E+01 0.21438386212E+01 0.21231904675E+01
 0.19581940640E+01 0.19753848015E+01 0.20214867145E+01 0.20821161484E+01 0.21395050953E+01
 0.21795984084E+01 0.21974618654E+01 0.21979926673E+01 0.21915029573E+01 0.21870817402E+01
 0.21880065240E+01 0.21917364421E+01 0.21937000384E+01 0.21917364421E+01 0.21880065240E+01
 0.21870817402E+01 0.21915029573E+01 0.21979926673E+01 0.21974618654E+01 0.21795984084E+01
 0.21395050953E+01 0.20821161484E+01 0.20214867145E+01 0.19753848015E+01 0.16904759321E+01
 0.17194698666E+01 0.17994478187E+01 0.19101632201E+01 0.20241780882E+01 0.21165831868E+01
 0.21738801428E+01 0.21974618654E+01 0.21993626675E+01 0.21935495971E+01 0.21888286858E+01
 0.21872229025E+01 0.21870746546E+01 0.21872229025E+01 0.21888286858E+01 0.21935495971E+01
 0.21993626675E+01 0.21974618654E+01 0.21738801428E+01 0.21165831868E+01 0.20241780882E+01
 0.19101632201E+01 0.17994478187E+01 0.17194698666E+01 0.13544476415E+01 0.13911330249E+01
 0.14971970990E+01 0.16570092222E+01 0.18384560107E+01 0.20006607343E+01 0.21165831868E+01
 0.21795984084E+01 0.22005702476E+01 0.21980087683E+01 0.21880065240E+01 0.21797843369E+01
 0.21768130889E+01 0.21797843369E+01 0.21880065240E+01 0.21980087683E+01 0.22005702476E+01
 0.21795984084E+01 0.21165831868E+01 0.20006607343E+01 0.18384560107E+01 0.16570092222E+01