    2    2   50    1
  0.3949336E+02  0.4290600E-09  0.4290600E-09  0.4290600E-09  0.5000000E-15
  1.000000000000000E-004
  CAR 
 bcc Na                                  
    2   35    6
 
  0.5000000E-01  0.5000000E-01  0.5000000E-01  0.8000000E-02
   1       -2.637056
   2        5.002426
   3        5.002426
   4        5.846167
   5        6.738174
   6        6.738174
 
  0.1500000E+00  0.5000000E-01  0.5000000E-01  0.2400000E-01
   1       -2.447513
   2        3.735206
   3        5.172193
   4        5.905227
   5        6.898103
   6        7.806150
 
  0.2500000E+00  0.5000000E-01  0.5000000E-01  0.2400000E-01
   1       -2.070560
   2        2.419730
   3        5.510089
   4        6.212809
   5        7.227062
   6        8.591164
 
  0.3500000E+00  0.5000000E-01  0.5000000E-01  0.2400000E-01
   1       -1.509835
   2        1.209245
   3        6.019583
   4        6.685930
   5        7.723869
   6        8.549799
 
  0.4500000E+00  0.5000000E-01  0.5000000E-01  0.2400000E-01
   1       -0.769115
   2        0.139999
   3        6.697967
   4        7.316175
   5        7.542369
   6        8.102153
 
  0.1500000E+00  0.1500000E+00  0.5000000E-01  0.2400000E-01
   1       -2.258843
   2        3.681676
   3        4.208564
   4        5.878980
   5        7.454395
   6        8.739287
 
  0.2500000E+00  0.1500000E+00  0.5000000E-01  0.4800000E-01
   1       -1.883202
   2        2.574577
   3        4.342366
   4        6.185681
   5        7.855481
   6        8.501658
 
  0.3500000E+00  0.1500000E+00  0.5000000E-01  0.4800000E-01
   1       -1.323786
   2        1.383481
   3        4.835144
   4        6.668363
   5        7.346712
   6        8.387506
 
  0.4500000E+00  0.1500000E+00  0.5000000E-01  0.4800000E-01
   1       -0.585932
   2        0.319728
   3        5.504874
   4        6.343717
   5        7.310206
   6        8.106735
 
  0.2500000E+00  0.2500000E+00  0.5000000E-01  0.2400000E-01
   1       -1.510317
   2        2.687290
   3        3.262218
   4        6.491617
   5        7.216784
   6        8.299721
 
  0.3500000E+00  0.2500000E+00  0.5000000E-01  0.4800000E-01
   1       -0.954494
   2        1.720498
   3        3.541518
   4        6.059943
   5        6.972477
   6        8.847723
 
  0.4500000E+00  0.2500000E+00  0.5000000E-01  0.4800000E-01
   1       -0.221539
   2        0.676640
   3        4.207220
   4        5.053073
   5        7.609595
   6        8.397411
 
  0.3500000E+00  0.3500000E+00  0.5000000E-01  0.2400000E-01
   1       -0.404783
   2        2.029493
   3        2.562573
   4        4.893680
   5        7.444641
   6        9.393115
 
  0.4500000E+00  0.3500000E+00  0.5000000E-01  0.4800000E-01
   1        0.319628
   2        1.199123
   3        3.031021
   4        3.877742
   5        8.068791
   6        8.817142
 
  0.4500000E+00  0.4500000E+00  0.5000000E-01  0.2400000E-01
   1        1.024192
   2        1.698032
   3        2.197748
   4        2.858493
   5        8.649618
   6        9.109852
 
  0.1500000E+00  0.1500000E+00  0.1500000E+00  0.8000000E-02
   1       -2.070771
   2        3.850179
   3        3.850179
   4        4.989602
   5        8.909496
   6        8.909496
 
  0.2500000E+00  0.1500000E+00  0.1500000E+00  0.2400000E-01
   1       -1.696449
   2        2.732768
   3        4.183731
   4        5.104847
   5        8.373155
   6        8.987856
 
  0.3500000E+00  0.1500000E+00  0.1500000E+00  0.2400000E-01
   1       -1.138582
   2        1.556623
   3        4.685834
   4        5.574949
   5        7.198388
   6        7.984666
 
  0.4500000E+00  0.1500000E+00  0.1500000E+00  0.2400000E-01
   1       -0.403449
   2        0.498598
   3        5.354332
   4        6.192210
   5        6.231278
   6        7.043617
 
  0.2500000E+00  0.2500000E+00  0.1500000E+00  0.2400000E-01
   1       -1.324385
   2        2.853603
   3        3.369579
   4        5.131240
   5        7.317055
   6        8.697369
 
  0.3500000E+00  0.2500000E+00  0.1500000E+00  0.4800000E-01
   1       -0.770347
   2        1.891183
   3        3.673372
   4        5.594418
   5        6.176819
   6        7.951228
 
  0.4500000E+00  0.2500000E+00  0.1500000E+00  0.4800000E-01
   1       -0.040074
   2        0.853665
   3        4.337021
   4        5.177960
   5        6.245763
   6        7.050788
 
  0.3500000E+00  0.3500000E+00  0.1500000E+00  0.2400000E-01
   1       -0.221853
   2        2.192074
   3        2.730146
   4        5.042273
   5        6.047710
   6        8.019988
 
  0.4500000E+00  0.3500000E+00  0.1500000E+00  0.4800000E-01
   1        0.498217
   2        1.372681
   3        3.195211
   4        4.036367
   5        6.680860
   6        7.427915
 
  0.4500000E+00  0.4500000E+00  0.1500000E+00  0.2400000E-01
   1        1.198716
   2        1.863451
   3        2.377585
   4        3.028896
   5        7.255645
   6        7.680889
 
  0.2500000E+00  0.2500000E+00  0.2500000E+00  0.8000000E-02
   1       -0.954921
   2        3.188435
   3        3.188435
   4        4.318723
   5        7.359176
   6        7.359176
 
  0.3500000E+00  0.2500000E+00  0.2500000E+00  0.2400000E-01
   1       -0.404592
   2        2.221515
   3        3.685918
   4        4.595236
   5        6.187359
   6        6.867759
 
  0.4500000E+00  0.2500000E+00  0.2500000E+00  0.2400000E-01
   1        0.320299
   2        1.204881
   3        4.351335
   4        5.186403
   5        5.234921
   6        6.031788
 
  0.3500000E+00  0.3500000E+00  0.2500000E+00  0.2400000E-01
   1        0.140435
   2        2.523089
   3        3.018790
   4        4.778856
   5        5.306175
   6        6.688161
 
  0.4500000E+00  0.3500000E+00  0.2500000E+00  0.4800000E-01
   1        0.854003
   2        1.717575
   3        3.498590
   4        4.326549
   5        5.392471
   6        6.129335
 
  0.4500000E+00  0.4500000E+00  0.2500000E+00  0.2400000E-01
   1        1.546076
   2        2.194016
   3        2.722353
   4        3.356368
   5        5.939018
   6        6.350717
 
  0.3500000E+00  0.3500000E+00  0.3500000E+00  0.8000000E-02
   1        0.676530
   2        3.020454
   3        3.020454
   4        4.104918
   5        5.518145
   6        5.518145
 
  0.4500000E+00  0.3500000E+00  0.3500000E+00  0.2400000E-01
   1        1.378283
   2        2.219722
   3        3.683790
   4        4.516360
   5        4.527001
   6        5.189840
 
  0.4500000E+00  0.4500000E+00  0.3500000E+00  0.2400000E-01
   1        2.057727
   2        2.690642
   3        3.175862
   4        3.801300
   5        4.809319
   6        5.182588
 
  0.4500000E+00  0.4500000E+00  0.4500000E+00  0.8000000E-02
   1        2.713448
   2        3.354546
   3        3.354546
   4        4.172912
   5        4.182596
   6        4.182596
