       N       E                     dE             d eps       ncg     rms          rms(c)
DAV:   1    -0.259140203790E+01   -0.25914E+01   -0.24652E+02   450   0.466E+01
DAV:   2    -0.285226084696E+01   -0.26086E+00   -0.24789E+00   618   0.637E+00
DAV:   3    -0.285359438555E+01   -0.13335E-02   -0.13332E-02   480   0.500E-01
DAV:   4    -0.285359947451E+01   -0.50890E-05   -0.50889E-05   660   0.245E-02
DAV:   5    -0.285359948621E+01   -0.11703E-07   -0.11713E-07   480   0.786E-04    0.276E-01
DAV:   6    -0.285318537169E+01    0.41411E-03   -0.55169E-05   504   0.336E-02    0.185E-01
DAV:   7    -0.285274570798E+01    0.43966E-03   -0.22018E-04   438   0.694E-02    0.127E-02
DAV:   8    -0.285273788113E+01    0.78269E-05   -0.68892E-06   450   0.122E-02    0.205E-03
DAV:   9    -0.285273794111E+01   -0.59985E-07   -0.15172E-07   384   0.200E-03
   1 F= -.28527379E+01 E0= -.28523508E+01  d E =-.285274E+01
       N       E                     dE             d eps       ncg     rms          rms(c)
DAV:   1    -0.287586986007E+01   -0.23132E-01   -0.17544E-02   516   0.526E-01    0.240E-02
DAV:   2    -0.287587477026E+01   -0.49102E-05   -0.73176E-05   450   0.402E-02    0.160E-02
DAV:   3    -0.287587457443E+01    0.19582E-06   -0.59149E-06   510   0.977E-03
   2 F= -.28758746E+01 E0= -.28754262E+01  d E =-.231366E-01
       N       E                     dE             d eps       ncg     rms          rms(c)
DAV:   1    -0.290533405146E+01   -0.29459E-01   -0.90167E-02   504   0.125E+00    0.542E-02
DAV:   2    -0.290535048688E+01   -0.16435E-04   -0.37264E-04   450   0.949E-02    0.358E-02
DAV:   3    -0.290534449986E+01    0.59870E-05   -0.31465E-05   510   0.232E-02    0.276E-03
DAV:   4    -0.290534290944E+01    0.15904E-05   -0.36810E-07   384   0.294E-03    0.150E-03
DAV:   5    -0.290534239153E+01    0.51791E-06   -0.24189E-07   348   0.250E-03
   3 F= -.29053424E+01 E0= -.29047747E+01  d E =-.526045E-01
       N       E                     dE             d eps       ncg     rms          rms(c)
DAV:   1    -0.290763929942E+01   -0.22964E-02   -0.15161E-02   492   0.522E-01    0.222E-02
DAV:   2    -0.290764041178E+01   -0.11124E-05   -0.69637E-05   456   0.428E-02    0.146E-02
DAV:   3    -0.290763864340E+01    0.17684E-05   -0.63345E-06   498   0.105E-02    0.120E-03
DAV:   4    -0.290763831593E+01    0.32747E-06   -0.71242E-08   264   0.136E-03
   4 F= -.29076383E+01 E0= -.29070283E+01  d E =-.549004E-01
       N       E                     dE             d eps       ncg     rms          rms(c)
DAV:   1    -0.290768956441E+01   -0.50921E-04   -0.25958E-04   492   0.684E-02    0.286E-03
DAV:   2    -0.290768961003E+01   -0.45615E-07   -0.12151E-06   450   0.566E-03
   5 F= -.29076896E+01 E0= -.29070849E+01  d E =-.549517E-01
