<?xml version="1.0" encoding="ISO-8859-1"?>
<modeling>
 <generator>
  <i name="program" type="string">vasp </i>
  <i name="version" type="string">5.3.2  </i>
  <i name="subversion" type="string">13Sep12 (build Jun 30 2016 14:08:18) complex                          parallel </i>
  <i name="platform" type="string">LinuxIFC </i>
  <i name="date" type="string">2017 10 23 </i>
  <i name="time" type="string">18:46:01 </i>
 </generator>
 <incar>
  <i type="string" name="SYSTEM"> bcc Na</i>
  <i type="string" name="PREC">normal</i>
  <i type="int" name="IBRION">     2</i>
  <i name="EDIFF">      0.00000100</i>
  <i type="int" name="NSW">    50</i>
  <i type="int" name="ISIF">     3</i>
  <v name="RWIGS">      1.40200000</v>
 </incar>
 <kpoints>
  <generation param="Monkhorst-Pack">
   <v type="int" name="divisions">      10       10       10 </v>
   <v name="usershift">      0.00000000       0.00000000       0.00000000 </v>
   <v name="genvec1">      0.10000000       0.00000000       0.00000000 </v>
   <v name="genvec2">      0.00000000       0.10000000       0.00000000 </v>
   <v name="genvec3">      0.00000000       0.00000000       0.10000000 </v>
   <v name="shift">      0.50000000       0.50000000       0.50000000 </v>
  </generation>
  <varray name="kpointlist" >
   <v>       0.05000000       0.05000000       0.05000000 </v>
   <v>       0.15000000       0.05000000       0.05000000 </v>
   <v>       0.25000000       0.05000000       0.05000000 </v>
   <v>       0.35000000       0.05000000       0.05000000 </v>
   <v>       0.45000000       0.05000000       0.05000000 </v>
   <v>       0.15000000       0.15000000       0.05000000 </v>
   <v>       0.25000000       0.15000000       0.05000000 </v>
   <v>       0.35000000       0.15000000       0.05000000 </v>
   <v>       0.45000000       0.15000000       0.05000000 </v>
   <v>       0.25000000       0.25000000       0.05000000 </v>
   <v>       0.35000000       0.25000000       0.05000000 </v>
   <v>       0.45000000       0.25000000       0.05000000 </v>
   <v>       0.35000000       0.35000000       0.05000000 </v>
   <v>       0.45000000       0.35000000       0.05000000 </v>
   <v>       0.45000000       0.45000000       0.05000000 </v>
   <v>       0.15000000       0.15000000       0.15000000 </v>
   <v>       0.25000000       0.15000000       0.15000000 </v>
   <v>       0.35000000       0.15000000       0.15000000 </v>
   <v>       0.45000000       0.15000000       0.15000000 </v>
   <v>       0.25000000       0.25000000       0.15000000 </v>
   <v>       0.35000000       0.25000000       0.15000000 </v>
   <v>       0.45000000       0.25000000       0.15000000 </v>
   <v>       0.35000000       0.35000000       0.15000000 </v>
   <v>       0.45000000       0.35000000       0.15000000 </v>
   <v>       0.45000000       0.45000000       0.15000000 </v>
   <v>       0.25000000       0.25000000       0.25000000 </v>
   <v>       0.35000000       0.25000000       0.25000000 </v>
   <v>       0.45000000       0.25000000       0.25000000 </v>
   <v>       0.35000000       0.35000000       0.25000000 </v>
   <v>       0.45000000       0.35000000       0.25000000 </v>
   <v>       0.45000000       0.45000000       0.25000000 </v>
   <v>       0.35000000       0.35000000       0.35000000 </v>
   <v>       0.45000000       0.35000000       0.35000000 </v>
   <v>       0.45000000       0.45000000       0.35000000 </v>
   <v>       0.45000000       0.45000000       0.45000000 </v>
  </varray>
  <varray name="weights" >
   <v>       0.00800000 </v>
   <v>       0.02400000 </v>
   <v>       0.02400000 </v>
   <v>       0.02400000 </v>
   <v>       0.02400000 </v>
   <v>       0.02400000 </v>
   <v>       0.04800000 </v>
   <v>       0.04800000 </v>
   <v>       0.04800000 </v>
   <v>       0.02400000 </v>
   <v>       0.04800000 </v>
   <v>       0.04800000 </v>
   <v>       0.02400000 </v>
   <v>       0.04800000 </v>
   <v>       0.02400000 </v>
   <v>       0.00800000 </v>
   <v>       0.02400000 </v>
   <v>       0.02400000 </v>
   <v>       0.02400000 </v>
   <v>       0.02400000 </v>
   <v>       0.04800000 </v>
   <v>       0.04800000 </v>
   <v>       0.02400000 </v>
   <v>       0.04800000 </v>
   <v>       0.02400000 </v>
   <v>       0.00800000 </v>
   <v>       0.02400000 </v>
   <v>       0.02400000 </v>
   <v>       0.02400000 </v>
   <v>       0.04800000 </v>
   <v>       0.02400000 </v>
   <v>       0.00800000 </v>
   <v>       0.02400000 </v>
   <v>       0.02400000 </v>
   <v>       0.00800000 </v>
  </varray>
 </kpoints>
 <parameters>
  <separator name="general" >
   <i type="string" name="SYSTEM">bcc Na</i>
   <i type="logical" name="LCOMPAT"> F  </i>
  </separator>
  <separator name="electronic" >
   <i type="string" name="PREC">normal</i>
   <i name="ENMAX">    101.95600000</i>
   <i name="ENAUG">    250.69500000</i>
   <i name="EDIFF">      0.00000100</i>
   <i type="int" name="IALGO">    38</i>
   <i type="int" name="IWAVPR">    11</i>
   <i type="int" name="NBANDS">     6</i>
   <i name="NELECT">      2.00000000</i>
   <i type="int" name="TURBO">     0</i>
   <i type="int" name="IRESTART">     0</i>
   <i type="int" name="NREBOOT">     0</i>
   <i type="int" name="NMIN">     0</i>
   <i name="EREF">      0.00000000</i>
   <separator name="electronic smearing" >
    <i type="int" name="ISMEAR">     1</i>
    <i name="SIGMA">      0.20000000</i>
    <i name="KSPACING">      0.50000000</i>
    <i type="logical" name="KGAMMA"> T  </i>
   </separator>
   <separator name="electronic projectors" >
    <i type="logical" name="LREAL"> F  </i>
    <v name="ROPT">      0.00000000</v>
    <i type="int" name="LMAXPAW">  -100</i>
    <i type="int" name="LMAXMIX">     2</i>
    <i type="logical" name="NLSPLINE"> F  </i>
   </separator>
   <separator name="electronic startup" >
    <i type="int" name="ISTART">     0</i>
    <i type="int" name="ICHARG">     2</i>
    <i type="int" name="INIWAV">     1</i>
   </separator>
   <separator name="electronic spin" >
    <i type="int" name="ISPIN">     1</i>
    <i type="logical" name="LNONCOLLINEAR"> F  </i>
    <v name="MAGMOM">      1.00000000      1.00000000</v>
    <i name="NUPDOWN">     -1.00000000</i>
    <i type="logical" name="LSORBIT"> F  </i>
    <v name="SAXIS">      0.00000000      0.00000000      1.00000000</v>
    <i type="logical" name="LSPIRAL"> F  </i>
    <v name="QSPIRAL">      0.00000000      0.00000000      0.00000000</v>
    <i type="logical" name="LZEROZ"> F  </i>
   </separator>
   <separator name="electronic exchange-correlation" >
    <i type="logical" name="LASPH"> F  </i>
    <i type="logical" name="LMETAGGA"> F  </i>
   </separator>
   <separator name="electronic convergence" >
    <i type="int" name="NELM">    60</i>
    <i type="int" name="NELMDL">    -5</i>
    <i type="int" name="NELMIN">     2</i>
    <i name="ENINI">    101.95600000</i>
    <separator name="electronic convergence detail" >
     <i type="logical" name="LDIAG"> T  </i>
     <i type="logical" name="LSUBROT"> T  </i>
     <i name="WEIMIN">      0.00100000</i>
     <i name="EBREAK">      0.00000004</i>
     <i name="DEPER">      0.30000000</i>
     <i type="int" name="NRMM">     4</i>
     <i name="TIME">      0.40000000</i>
    </separator>
   </separator>
   <separator name="electronic mixer" >
    <i name="AMIX">      0.40000000</i>
    <i name="BMIX">      1.00000000</i>
    <i name="AMIN">      0.10000000</i>
    <i name="AMIX_MAG">      1.60000000</i>
    <i name="BMIX_MAG">      1.00000000</i>
    <separator name="electronic mixer details" >
     <i type="int" name="IMIX">     4</i>
     <i type="int" name="MAXMIX">   -45</i>
     <i name="WC">    100.00000000</i>
     <i type="int" name="INIMIX">     1</i>
     <i type="int" name="MIXPRE">     1</i>
     <i type="int" name="MREMOVE">     5</i>
    </separator>
   </separator>
   <separator name="electronic dipolcorrection" >
    <i type="logical" name="LDIPOL"> F  </i>
    <i type="logical" name="LMONO"> F  </i>
    <i type="int" name="IDIPOL">     0</i>
    <i name="EPSILON">      1.00000000</i>
    <v name="DIPOL">   -100.00000000   -100.00000000   -100.00000000</v>
    <i name="EFIELD">      0.00000000</i>
   </separator>
  </separator>
  <separator name="grids" >
   <i type="int" name="NGX">    12</i>
   <i type="int" name="NGY">    12</i>
   <i type="int" name="NGZ">    12</i>
   <i type="int" name="NGXF">    24</i>
   <i type="int" name="NGYF">    24</i>
   <i type="int" name="NGZF">    24</i>
   <i type="logical" name="ADDGRID"> F  </i>
  </separator>
  <separator name="ionic" >
   <i type="int" name="NSW">    50</i>
   <i type="int" name="IBRION">     2</i>
   <i type="int" name="ISIF">     3</i>
   <i name="PSTRESS">      0.00000000</i>
   <i name="EDIFFG">      0.00001000</i>
   <i type="int" name="NFREE">     1</i>
   <i name="POTIM">      0.50000000</i>
   <i name="SMASS">     -3.00000000</i>
   <i name="SCALEE">      1.00000000</i>
  </separator>
  <separator name="ionic md" >
   <i name="TEBEG">      0.00010000</i>
   <i name="TEEND">      0.00010000</i>
   <i type="int" name="NBLOCK">     1</i>
   <i type="int" name="KBLOCK">    50</i>
   <i type="int" name="NPACO">   256</i>
   <i name="APACO">     16.00000000</i>
  </separator>
  <separator name="symmetry" >
   <i type="int" name="ISYM">     2</i>
   <i name="SYMPREC">      0.00001000</i>
  </separator>
  <separator name="dos" >
   <i type="logical" name="LORBIT"> F  </i>
   <v name="RWIGS">      1.40200000</v>
   <i type="int" name="NEDOS">   301</i>
   <i name="EMIN">     10.00000000</i>
   <i name="EMAX">    -10.00000000</i>
   <i name="EFERMI">      0.00000000</i>
  </separator>
  <separator name="writing" >
   <i type="int" name="NWRITE">     2</i>
   <i type="logical" name="LWAVE"> T  </i>
   <i type="logical" name="LCHARG"> T  </i>
   <i type="logical" name="LPARD"> F  </i>
   <i type="logical" name="LVTOT"> F  </i>
   <i type="logical" name="LVHAR"> F  </i>
   <i type="logical" name="LELF"> F  </i>
   <i type="logical" name="LOPTICS"> F  </i>
   <v name="STM">      0.00000000      0.00000000      0.00000000      0.00000000      0.00000000      0.00000000      0.00000000</v>
  </separator>
  <separator name="performance" >
   <i type="int" name="NPAR">     2</i>
   <i type="int" name="NSIM">     4</i>
   <i type="int" name="NBLK">    -1</i>
   <i type="logical" name="LPLANE"> T  </i>
   <i type="logical" name="LSCALAPACK"> F  </i>
   <i type="logical" name="LSCAAWARE"> F  </i>
   <i type="logical" name="LSCALU"> F  </i>
   <i type="logical" name="LASYNC"> F  </i>
   <i type="logical" name="LORBITALREAL"> F  </i>
  </separator>
  <separator name="miscellaneous" >
   <i type="int" name="IDIOT">     3</i>
   <i type="logical" name="LMUSIC"> F  </i>
   <v name="POMASS">     22.99000000</v>
   <v name="DARWINR">      0.00000000</v>
   <v name="DARWINV">      1.00000000</v>
   <i type="logical" name="LCORR"> T  </i>
  </separator>
  <i type="logical" name="GGA_COMPAT"> T  </i>
  <i type="logical" name="LBERRY"> F  </i>
  <i type="int" name="ICORELEVEL">     0</i>
  <i type="logical" name="LDAU"> F  </i>
  <i type="int" name="I_CONSTRAINED_M">     0</i>
  <separator name="electronic exchange-correlation" >
   <i type="string" name="GGA">--</i>
   <i type="int" name="VOSKOWN">     0</i>
   <i type="logical" name="LHFCALC"> F  </i>
   <i type="string" name="PRECFOCK"></i>
   <i type="logical" name="LSYMGRAD"> F  </i>
   <i type="logical" name="LHFONE"> F  </i>
   <i type="logical" name="LRHFCALC"> F  </i>
   <i type="logical" name="LTHOMAS"> F  </i>
   <i type="logical" name="LMODELHF"> F  </i>
   <i name="ENCUT4O">     -1.00000000</i>
   <i type="int" name="EXXOEP">     0</i>
   <i type="int" name="FOURORBIT">     0</i>
   <i name="AEXX">      0.00000000</i>
   <i name="HFALPHA">      0.00000000</i>
   <i name="MCALPHA">      0.00000000</i>
   <i name="ALDAX">      1.00000000</i>
   <i name="AGGAX">      1.00000000</i>
   <i name="ALDAC">      1.00000000</i>
   <i name="AGGAC">      1.00000000</i>
   <i type="int" name="NKREDX">     1</i>
   <i type="int" name="NKREDY">     1</i>
   <i type="int" name="NKREDZ">     1</i>
   <i type="logical" name="SHIFTRED"> F  </i>
   <i type="logical" name="ODDONLY"> F  </i>
   <i type="logical" name="EVENONLY"> F  </i>
   <i type="int" name="LMAXFOCK">     0</i>
   <i type="int" name="NMAXFOCKAE">     0</i>
   <i type="logical" name="LFOCKAEDFT"> F  </i>
   <i name="HFSCREEN">      0.00000000</i>
   <i name="HFSCREENC">      0.00000000</i>
   <i type="int" name="NBANDSGWLOW">     0</i>
  </separator>
  <separator name="vdW DFT" >
   <i type="logical" name="LUSE_VDW"> F  </i>
   <i name="Zab_VDW">     -0.84910000</i>
   <i name="PARAM1">      0.12340000</i>
   <i name="PARAM2">      1.00000000</i>
   <i name="PARAM3">      0.00000000</i>
  </separator>
  <separator name="model GW" >
   <i type="int" name="MODEL_GW">     0</i>
   <i name="MODEL_EPS0">     23.69601630</i>
   <i name="MODEL_ALPHA">      1.00000000</i>
  </separator>
  <separator name="linear response parameters" >
   <i type="logical" name="LEPSILON"> F  </i>
   <i type="logical" name="LRPA"> F  </i>
   <i type="logical" name="LNABLA"> F  </i>
   <i type="logical" name="LVEL"> F  </i>
   <i type="int" name="KINTER">     0</i>
   <i name="CSHIFT">      0.10000000</i>
   <i name="OMEGAMAX">     -1.00000000</i>
   <i name="DEG_THRESHOLD">      0.00200000</i>
  </separator>
  <separator name="orbital magnetization" >
   <i type="logical" name="NUCIND"> F  </i>
   <v name="MAGPOS">      0.00000000      0.00000000      0.00000000</v>
   <i type="logical" name="LNICSALL"> T  </i>
   <i type="logical" name="ORBITALMAG"> F  </i>
   <i type="logical" name="LMAGBLOCH"> F  </i>
   <i type="logical" name="LCHIMAG"> F  </i>
   <i type="logical" name="LGAUGE"> T  </i>
   <i type="int" name="MAGATOM">     0</i>
   <v name="MAGDIPOL">      0.00000000      0.00000000      0.00000000</v>
   <v name="AVECCONST">      0.00000000      0.00000000      0.00000000</v>
  </separator>
  <separator name="response functions" >
   <i type="logical" name="LADDER"> F  </i>
   <i type="logical" name="LHARTREE"> T  </i>
   <i type="int" name="IBSE">     0</i>
   <i type="logical" name="LTCTE"> F  </i>
   <i type="logical" name="LTETE"> F  </i>
   <i type="logical" name="LTRIPLET"> F  </i>
   <i type="logical" name="LFXCEPS"> F  </i>
   <i type="logical" name="L2ORDER"> F  </i>
   <i type="logical" name="LUSEW"> F  </i>
   <i name="ENCUTGW">     -2.00000000</i>
   <i name="ENCUTGWSOFT">     -2.00000000</i>
   <i name="ENCUTLF">     -1.00000000</i>
   <i type="int" name="LMAXMP2">    -1</i>
   <i name="SCISSOR">      0.00000000</i>
   <i type="int" name="NOMEGA">     0</i>
   <i type="int" name="NOMEGAR">     0</i>
   <i type="int" name="NBANDSGW">    -1</i>
   <i type="int" name="NBANDSO">    -1</i>
   <i type="int" name="NBANDSV">    -1</i>
   <i type="int" name="NELM">     1</i>
   <i type="int" name="DIM">     3</i>
   <i type="int" name="ANTIRES">     0</i>
   <i name="OMEGAMAX">    -30.00000000</i>
   <i name="OMEGATL">   -200.00000000</i>
   <i type="int" name="OMEGAGRID">     0</i>
   <i name="CSHIFT">     -0.10000000</i>
   <i type="logical" name="SELFENERGY"> F  </i>
   <i type="logical" name="LSPECTRAL"> F  </i>
   <i type="logical" name="ODDONLYGW"> F  </i>
   <i type="logical" name="EVENONLYGW"> F  </i>
   <i type="int" name="NKREDLFX">     1</i>
   <i type="int" name="NKREDLFY">     1</i>
   <i type="int" name="NKREDLFZ">     1</i>
   <i type="int" name="MAXMEM">  1800</i>
   <i type="int" name="TELESCOPE">     0</i>
  </separator>
 </parameters>
 <atominfo>
  <atoms>       2 </atoms>
  <types>       1 </types>
  <array name="atoms" >
   <dimension dim="1">ion</dimension>
   <field type="string">element</field>
   <field type="int">atomtype</field>
   <set>
    <rc><c>Na</c><c>   1</c></rc>
    <rc><c>Na</c><c>   1</c></rc>
   </set>
  </array>
  <array name="atomtypes" >
   <dimension dim="1">type</dimension>
   <field type="int">atomspertype</field>
   <field type="string">element</field>
   <field>mass</field>
   <field>valence</field>
   <field type="string">pseudopotential</field>
   <set>
    <rc><c>   2</c><c>Na</c><c>     22.99000000</c><c>      1.00000000</c><c>  PAW Na                                </c></rc>
   </set>
  </array>
 </atominfo>
 <structure name="initialpos" >
  <crystal>
   <varray name="basis" >
    <v>       4.29060000       0.00000000       0.00000000 </v>
    <v>       0.00000000       4.29060000       0.00000000 </v>
    <v>       0.00000000       0.00000000       4.29060000 </v>
   </varray>
   <i name="volume">     78.98672101 </i>
   <varray name="rec_basis" >
    <v>       0.23306764       0.00000000       0.00000000 </v>
    <v>       0.00000000       0.23306764       0.00000000 </v>
    <v>       0.00000000       0.00000000       0.23306764 </v>
   </varray>
  </crystal>
  <varray name="positions" >
   <v>       0.00000000       0.00000000       0.00000000 </v>
   <v>       0.50000000       0.50000000       0.50000000 </v>
  </varray>
 </structure>
 <calculation>
  <scstep>
   <time name="dav">    0.10    0.10</time>
   <time name="total">    0.11    0.11</time>
   <energy>
    <i name="alphaZ">     -1.03750963 </i>
    <i name="ewald">    -12.21372009 </i>
    <i name="hartreedc">     -0.00574235 </i>
    <i name="XCdc">    -71.54793493 </i>
    <i name="pawpsdc">     73.23867520 </i>
    <i name="pawaedc">      0.22111317 </i>
    <i name="eentropy">     -0.00437146 </i>
    <i name="bandstr">     -1.61781322 </i>
    <i name="atom">     10.37590127 </i>
    <i name="e_fr_energy">     -2.59140204 </i>
    <i name="e_wo_entrp">     -2.58703057 </i>
    <i name="e_0_energy">     -2.58994488 </i>
   </energy>
  </scstep>
  <scstep>
   <time name="dav">    0.14    0.14</time>
   <time name="total">    0.14    0.15</time>
   <energy>
    <i name="e_fr_energy">     -2.85226085 </i>
    <i name="e_wo_entrp">     -2.85115075 </i>
    <i name="e_0_energy">     -2.85189082 </i>
   </energy>
  </scstep>
  <scstep>
   <time name="dav">    0.11    0.11</time>
   <time name="total">    0.11    0.12</time>
   <energy>
    <i name="e_fr_energy">     -2.85359439 </i>
    <i name="e_wo_entrp">     -2.85242945 </i>
    <i name="e_0_energy">     -2.85320607 </i>
   </energy>
  </scstep>
  <scstep>
   <time name="dav">    0.14    0.14</time>
   <time name="total">    0.15    0.15</time>
   <energy>
    <i name="e_fr_energy">     -2.85359947 </i>
    <i name="e_wo_entrp">     -2.85243417 </i>
    <i name="e_0_energy">     -2.85321104 </i>
   </energy>
  </scstep>
  <scstep>
   <time name="dav">    0.11    0.11</time>
   <time name="total">    0.12    0.13</time>
   <energy>
    <i name="e_fr_energy">     -2.85359949 </i>
    <i name="e_wo_entrp">     -2.85243418 </i>
    <i name="e_0_energy">     -2.85321105 </i>
   </energy>
  </scstep>
  <scstep>
   <time name="dav">    0.11    0.11</time>
   <time name="total">    0.13    0.13</time>
   <energy>
    <i name="e_fr_energy">     -2.85318537 </i>
    <i name="e_wo_entrp">     -2.85202118 </i>
    <i name="e_0_energy">     -2.85279731 </i>
   </energy>
  </scstep>
  <scstep>
   <time name="dav">    0.09    0.09</time>
   <time name="total">    0.11    0.11</time>
   <energy>
    <i name="e_fr_energy">     -2.85274571 </i>
    <i name="e_wo_entrp">     -2.85158377 </i>
    <i name="e_0_energy">     -2.85235840 </i>
   </energy>
  </scstep>
  <scstep>
   <time name="dav">    0.09    0.09</time>
   <time name="total">    0.11    0.11</time>
   <energy>
    <i name="e_fr_energy">     -2.85273788 </i>
    <i name="e_wo_entrp">     -2.85157626 </i>
    <i name="e_0_energy">     -2.85235067 </i>
   </energy>
  </scstep>
  <scstep>
   <time name="dav">    0.09    0.09</time>
   <time name="total">    0.10    0.10</time>
   <energy>
    <i name="alphaZ">     -1.03750963 </i>
    <i name="ewald">    -12.21372009 </i>
    <i name="hartreedc">     -0.02075008 </i>
    <i name="XCdc">    -71.45970090 </i>
    <i name="pawpsdc">     73.25758852 </i>
    <i name="pawaedc">      0.19727356 </i>
    <i name="eentropy">     -0.00116157 </i>
    <i name="bandstr">     -1.95065901 </i>
    <i name="atom">     10.37590127 </i>
    <i name="e_fr_energy">     -2.85273794 </i>
    <i name="e_wo_entrp">     -2.85157637 </i>
    <i name="e_0_energy">     -2.85235075 </i>
   </energy>
  </scstep>
  <structure>
   <crystal>
    <varray name="basis" >
     <v>       4.29060000       0.00000000       0.00000000 </v>
     <v>       0.00000000       4.29060000       0.00000000 </v>
     <v>       0.00000000       0.00000000       4.29060000 </v>
    </varray>
    <i name="volume">     78.98672101 </i>
    <varray name="rec_basis" >
     <v>       0.23306764       0.00000000       0.00000000 </v>
     <v>       0.00000000       0.23306764       0.00000000 </v>
     <v>       0.00000000       0.00000000       0.23306764 </v>
    </varray>
   </crystal>
   <varray name="positions" >
    <v>       0.00000000       0.00000000       0.00000000 </v>
    <v>       0.50000000       0.50000000       0.50000000 </v>
   </varray>
  </structure>
  <varray name="forces" >
   <v>       0.00000000       0.00000000       0.00000000 </v>
   <v>       0.00000000       0.00000000       0.00000000 </v>
  </varray>
  <varray name="stress" >
   <v>     -12.10417809       0.00000000       0.00000000 </v>
   <v>       0.00000000     -12.10417809       0.00000000 </v>
   <v>       0.00000000       0.00000000     -12.10417809 </v>
  </varray>
  <energy>
   <i name="e_fr_energy">     -2.85273794 </i>
   <i name="e_wo_entrp">     -2.85235075 </i>
   <i name="e_0_energy">     -0.00116157 </i>
  </energy>
  <time name="totalsc">    1.23    1.27</time>
 </calculation>
 <calculation>
  <scstep>
   <time name="dav">    0.11    0.11</time>
   <time name="total">    0.13    0.13</time>
   <energy>
    <i name="alphaZ">     -1.08363259 </i>
    <i name="ewald">    -12.39209124 </i>
    <i name="hartreedc">     -0.02105666 </i>
    <i name="XCdc">    -71.44824409 </i>
    <i name="pawpsdc">     73.25782589 </i>
    <i name="pawaedc">      0.19699320 </i>
    <i name="eentropy">     -0.00134522 </i>
    <i name="bandstr">     -1.76022043 </i>
    <i name="atom">     10.37590127 </i>
    <i name="e_fr_energy">     -2.87586986 </i>
    <i name="e_wo_entrp">     -2.87452464 </i>
    <i name="e_0_energy">     -2.87542145 </i>
   </energy>
  </scstep>
  <scstep>
   <time name="dav">    0.10    0.10</time>
   <time name="total">    0.12    0.12</time>
   <energy>
    <i name="e_fr_energy">     -2.87587477 </i>
    <i name="e_wo_entrp">     -2.87452967 </i>
    <i name="e_0_energy">     -2.87542640 </i>
   </energy>
  </scstep>
  <scstep>
   <time name="dav">    0.11    0.11</time>
   <time name="total">    0.12    0.12</time>
   <energy>
    <i name="alphaZ">     -1.08363259 </i>
    <i name="ewald">    -12.39209124 </i>
    <i name="hartreedc">     -0.02333339 </i>
    <i name="XCdc">    -71.44089858 </i>
    <i name="pawpsdc">     73.27137989 </i>
    <i name="pawaedc">      0.18222269 </i>
    <i name="eentropy">     -0.00134498 </i>
    <i name="bandstr">     -1.76407765 </i>
    <i name="atom">     10.37590127 </i>
    <i name="e_fr_energy">     -2.87587457 </i>
    <i name="e_wo_entrp">     -2.87452960 </i>
    <i name="e_0_energy">     -2.87542625 </i>
   </energy>
  </scstep>
  <structure>
   <crystal>
    <varray name="basis" >
     <v>       4.22884132       0.00000000       0.00000000 </v>
     <v>       0.00000000       4.22884132       0.00000000 </v>
     <v>       0.00000000       0.00000000       4.22884132 </v>
    </varray>
    <i name="volume">     75.62478738 </i>
    <varray name="rec_basis" >
     <v>       0.23647139       0.00000000       0.00000000 </v>
     <v>       0.00000000       0.23647139       0.00000000 </v>
     <v>       0.00000000       0.00000000       0.23647139 </v>
    </varray>
   </crystal>
   <varray name="positions" >
    <v>       0.00000000       0.00000000       0.00000000 </v>
    <v>       0.50000000       0.50000000       0.50000000 </v>
   </varray>
  </structure>
  <varray name="forces" >
   <v>       0.00000000       0.00000000       0.00000000 </v>
   <v>       0.00000000       0.00000000       0.00000000 </v>
  </varray>
  <varray name="stress" >
   <v>      -9.87437103       0.00000000       0.00000000 </v>
   <v>       0.00000000      -9.87437103       0.00000000 </v>
   <v>       0.00000000       0.00000000      -9.87437103 </v>
  </varray>
  <energy>
   <i name="e_fr_energy">     -2.87587457 </i>
   <i name="e_wo_entrp">     -2.87542625 </i>
   <i name="e_0_energy">     -0.00134498 </i>
  </energy>
  <time name="totalsc">    0.49    0.51</time>
 </calculation>
 <calculation>
  <scstep>
   <time name="dav">    0.11    0.11</time>
   <time name="total">    0.13    0.14</time>
   <energy>
    <i name="alphaZ">     -1.19383857 </i>
    <i name="ewald">    -12.79869782 </i>
    <i name="hartreedc">     -0.02412881 </i>
    <i name="XCdc">    -71.41682821 </i>
    <i name="pawpsdc">     73.27043494 </i>
    <i name="pawaedc">      0.18325130 </i>
    <i name="eentropy">     -0.00170376 </i>
    <i name="bandstr">     -1.29972440 </i>
    <i name="atom">     10.37590127 </i>
    <i name="e_fr_energy">     -2.90533405 </i>
    <i name="e_wo_entrp">     -2.90363029 </i>
    <i name="e_0_energy">     -2.90476613 </i>
   </energy>
  </scstep>
  <scstep>
   <time name="dav">    0.10    0.10</time>
   <time name="total">    0.12    0.12</time>
   <energy>
    <i name="e_fr_energy">     -2.90535049 </i>
    <i name="e_wo_entrp">     -2.90364718 </i>
    <i name="e_0_energy">     -2.90478272 </i>
   </energy>
  </scstep>
  <scstep>
   <time name="dav">    0.11    0.11</time>
   <time name="total">    0.13    0.14</time>
   <energy>
    <i name="e_fr_energy">     -2.90534450 </i>
    <i name="e_wo_entrp">     -2.90364144 </i>
    <i name="e_0_energy">     -2.90477681 </i>
   </energy>
  </scstep>
  <scstep>
   <time name="dav">    0.08    0.08</time>
   <time name="total">    0.10    0.11</time>
   <energy>
    <i name="e_fr_energy">     -2.90534291 </i>
    <i name="e_wo_entrp">     -2.90363991 </i>
    <i name="e_0_energy">     -2.90477524 </i>
   </energy>
  </scstep>
  <scstep>
   <time name="dav">    0.08    0.08</time>
   <time name="total">    0.09    0.09</time>
   <energy>
    <i name="alphaZ">     -1.19383857 </i>
    <i name="ewald">    -12.79869782 </i>
    <i name="hartreedc">     -0.02977384 </i>
    <i name="XCdc">    -71.39997872 </i>
    <i name="pawpsdc">     73.30006919 </i>
    <i name="pawaedc">      0.15092884 </i>
    <i name="eentropy">     -0.00170295 </i>
    <i name="bandstr">     -1.30824980 </i>
    <i name="atom">     10.37590127 </i>
    <i name="e_fr_energy">     -2.90534239 </i>
    <i name="e_wo_entrp">     -2.90363944 </i>
    <i name="e_0_energy">     -2.90477474 </i>
   </energy>
  </scstep>
  <structure>
   <crystal>
    <varray name="basis" >
     <v>       4.09449369       0.00000000       0.00000000 </v>
     <v>       0.00000000       4.09449369       0.00000000 </v>
     <v>       0.00000000       0.00000000       4.09449369 </v>
    </varray>
    <i name="volume">     68.64368941 </i>
    <varray name="rec_basis" >
     <v>       0.24423044       0.00000000       0.00000000 </v>
     <v>       0.00000000       0.24423044       0.00000000 </v>
     <v>       0.00000000       0.00000000       0.24423044 </v>
    </varray>
   </crystal>
   <varray name="positions" >
    <v>       0.00000000       0.00000000       0.00000000 </v>
    <v>       0.50000000       0.50000000       0.50000000 </v>
   </varray>
  </structure>
  <varray name="forces" >
   <v>       0.00000000       0.00000000       0.00000000 </v>
   <v>       0.00000000       0.00000000       0.00000000 </v>
  </varray>
  <varray name="stress" >
   <v>      -3.12013395       0.00000000       0.00000000 </v>
   <v>       0.00000000      -3.12013395       0.00000000 </v>
   <v>       0.00000000       0.00000000      -3.12013395 </v>
  </varray>
  <energy>
   <i name="e_fr_energy">     -2.90534239 </i>
   <i name="e_wo_entrp">     -2.90477474 </i>
   <i name="e_0_energy">     -0.00170295 </i>
  </energy>
  <time name="totalsc">    0.68    0.70</time>
 </calculation>
 <calculation>
  <scstep>
   <time name="dav">    0.10    0.10</time>
   <time name="total">    0.12    0.12</time>
   <energy>
    <i name="alphaZ">     -1.24237383 </i>
    <i name="ewald">    -12.96984190 </i>
    <i name="hartreedc">     -0.03017043 </i>
    <i name="XCdc">    -71.39050945 </i>
    <i name="pawpsdc">     73.30022573 </i>
    <i name="pawaedc">      0.15075760 </i>
    <i name="eentropy">     -0.00183018 </i>
    <i name="bandstr">     -1.09979812 </i>
    <i name="atom">     10.37590127 </i>
    <i name="e_fr_energy">     -2.90763930 </i>
    <i name="e_wo_entrp">     -2.90580912 </i>
    <i name="e_0_energy">     -2.90702924 </i>
   </energy>
  </scstep>
  <scstep>
   <time name="dav">    0.10    0.10</time>
   <time name="total">    0.12    0.12</time>
   <energy>
    <i name="e_fr_energy">     -2.90764041 </i>
    <i name="e_wo_entrp">     -2.90581034 </i>
    <i name="e_0_energy">     -2.90703039 </i>
   </energy>
  </scstep>
  <scstep>
   <time name="dav">    0.11    0.11</time>
   <time name="total">    0.13    0.14</time>
   <energy>
    <i name="e_fr_energy">     -2.90763864 </i>
    <i name="e_wo_entrp">     -2.90580865 </i>
    <i name="e_0_energy">     -2.90702864 </i>
   </energy>
  </scstep>
  <scstep>
   <time name="dav">    0.07    0.07</time>
   <time name="total">    0.08    0.08</time>
   <energy>
    <i name="alphaZ">     -1.24237383 </i>
    <i name="ewald">    -12.96984190 </i>
    <i name="hartreedc">     -0.03258809 </i>
    <i name="XCdc">    -71.38376342 </i>
    <i name="pawpsdc">     73.31597975 </i>
    <i name="pawaedc">      0.13356755 </i>
    <i name="eentropy">     -0.00182997 </i>
    <i name="bandstr">     -1.10268968 </i>
    <i name="atom">     10.37590127 </i>
    <i name="e_fr_energy">     -2.90763832 </i>
    <i name="e_wo_entrp">     -2.90580834 </i>
    <i name="e_0_energy">     -2.90702832 </i>
   </energy>
  </scstep>
  <structure>
   <crystal>
    <varray name="basis" >
     <v>       4.04046463       0.00000000       0.00000000 </v>
     <v>       0.00000000       4.04046463       0.00000000 </v>
     <v>       0.00000000       0.00000000       4.04046463 </v>
    </varray>
    <i name="volume">     65.96201704 </i>
    <varray name="rec_basis" >
     <v>       0.24749629       0.00000000       0.00000000 </v>
     <v>       0.00000000       0.24749629       0.00000000 </v>
     <v>       0.00000000       0.00000000       0.24749629 </v>
    </varray>
   </crystal>
   <varray name="positions" >
    <v>       0.00000000       0.00000000       0.00000000 </v>
    <v>       0.50000000       0.50000000       0.50000000 </v>
   </varray>
  </structure>
  <varray name="forces" >
   <v>       0.00000000       0.00000000       0.00000000 </v>
   <v>       0.00000000       0.00000000       0.00000000 </v>
  </varray>
  <varray name="stress" >
   <v>       0.48353212       0.00000000       0.00000000 </v>
   <v>       0.00000000       0.48353212       0.00000000 </v>
   <v>       0.00000000       0.00000000       0.48353212 </v>
  </varray>
  <energy>
   <i name="e_fr_energy">     -2.90763832 </i>
   <i name="e_wo_entrp">     -2.90702832 </i>
   <i name="e_0_energy">     -0.00182997 </i>
  </energy>
  <time name="totalsc">    0.56    0.58</time>
 </calculation>
 <calculation>
  <scstep>
   <time name="dav">    0.11    0.11</time>
   <time name="total">    0.13    0.13</time>
   <energy>
    <i name="alphaZ">     -1.23593626 </i>
    <i name="ewald">    -12.94740125 </i>
    <i name="hartreedc">     -0.03254628 </i>
    <i name="XCdc">    -71.38497866 </i>
    <i name="pawpsdc">     73.31483492 </i>
    <i name="pawaedc">      0.13481518 </i>
    <i name="eentropy">     -0.00181404 </i>
    <i name="bandstr">     -1.13056445 </i>
    <i name="atom">     10.37590127 </i>
    <i name="e_fr_energy">     -2.90768956 </i>
    <i name="e_wo_entrp">     -2.90587552 </i>
    <i name="e_0_energy">     -2.90708488 </i>
   </energy>
  </scstep>
  <scstep>
   <time name="dav">    0.10    0.10</time>
   <time name="total">    0.11    0.11</time>
   <energy>
    <i name="alphaZ">     -1.23593626 </i>
    <i name="ewald">    -12.94740125 </i>
    <i name="hartreedc">     -0.03244561 </i>
    <i name="XCdc">    -71.38525562 </i>
    <i name="pawpsdc">     73.31403562 </i>
    <i name="pawaedc">      0.13568610 </i>
    <i name="eentropy">     -0.00181405 </i>
    <i name="bandstr">     -1.13045981 </i>
    <i name="atom">     10.37590127 </i>
    <i name="e_fr_energy">     -2.90768961 </i>
    <i name="e_wo_entrp">     -2.90587556 </i>
    <i name="e_0_energy">     -2.90708493 </i>
   </energy>
  </scstep>
  <structure>
   <crystal>
    <varray name="basis" >
     <v>       4.04746763       0.00000000       0.00000000 </v>
     <v>       0.00000000       4.04746763       0.00000000 </v>
     <v>       0.00000000       0.00000000       4.04746763 </v>
    </varray>
    <i name="volume">     66.30559111 </i>
    <varray name="rec_basis" >
     <v>       0.24706807       0.00000000       0.00000000 </v>
     <v>       0.00000000       0.24706807       0.00000000 </v>
     <v>       0.00000000       0.00000000       0.24706807 </v>
    </varray>
   </crystal>
   <varray name="positions" >
    <v>       0.00000000       0.00000000       0.00000000 </v>
    <v>       0.50000000       0.50000000       0.50000000 </v>
   </varray>
  </structure>
  <varray name="forces" >
   <v>       0.00000000       0.00000000       0.00000000 </v>
   <v>       0.00000000       0.00000000       0.00000000 </v>
  </varray>
  <varray name="stress" >
   <v>      -0.00315969       0.00000000       0.00000000 </v>
   <v>       0.00000000      -0.00315969       0.00000000 </v>
   <v>       0.00000000       0.00000000      -0.00315969 </v>
  </varray>
  <energy>
   <i name="e_fr_energy">     -2.90768961 </i>
   <i name="e_wo_entrp">     -2.90708493 </i>
   <i name="e_0_energy">     -0.00181405 </i>
  </energy>
  <time name="totalsc">    0.34    0.36</time>
  <eigenvalues>
   <array>
    <dimension dim="1">band</dimension>
    <dimension dim="2">kpoint</dimension>
    <dimension dim="3">spin</dimension>
    <field>eigene</field>
    <field>occ</field>
    <set>
     <set comment="spin 1">
      <set comment="kpoint 1">
       <r>   -2.6371    1.0000 </r>
       <r>    5.0024    0.0000 </r>
       <r>    5.0024    0.0000 </r>
       <r>    5.8462    0.0000 </r>
       <r>    6.7382    0.0000 </r>
       <r>    6.7382    0.0000 </r>
      </set>
      <set comment="kpoint 2">
       <r>   -2.4475    1.0000 </r>
       <r>    3.7352    0.0000 </r>
       <r>    5.1722    0.0000 </r>
       <r>    5.9052    0.0000 </r>
       <r>    6.8981    0.0000 </r>
       <r>    7.8062    0.0000 </r>
      </set>
      <set comment="kpoint 3">
       <r>   -2.0706    1.0000 </r>
       <r>    2.4197    0.0000 </r>
       <r>    5.5101    0.0000 </r>
       <r>    6.2128    0.0000 </r>
       <r>    7.2271    0.0000 </r>
       <r>    8.5912    0.0000 </r>
      </set>
      <set comment="kpoint 4">
       <r>   -1.5098    1.0000 </r>
       <r>    1.2092   -0.0094 </r>
       <r>    6.0196    0.0000 </r>
       <r>    6.6859    0.0000 </r>
       <r>    7.7239    0.0000 </r>
       <r>    8.5498    0.0000 </r>
      </set>
      <set comment="kpoint 5">
       <r>   -0.7691    1.0000 </r>
       <r>    0.1400    1.0000 </r>
       <r>    6.6980    0.0000 </r>
       <r>    7.3162    0.0000 </r>
       <r>    7.5424    0.0000 </r>
       <r>    8.1022    0.0000 </r>
      </set>
      <set comment="kpoint 6">
       <r>   -2.2588    1.0000 </r>
       <r>    3.6817    0.0000 </r>
       <r>    4.2086    0.0000 </r>
       <r>    5.8790    0.0000 </r>
       <r>    7.4544    0.0000 </r>
       <r>    8.7393    0.0000 </r>
      </set>
      <set comment="kpoint 7">
       <r>   -1.8832    1.0000 </r>
       <r>    2.5746    0.0000 </r>
       <r>    4.3424    0.0000 </r>
       <r>    6.1857    0.0000 </r>
       <r>    7.8555    0.0000 </r>
       <r>    8.5017    0.0000 </r>
      </set>
      <set comment="kpoint 8">
       <r>   -1.3238    1.0000 </r>
       <r>    1.3835   -0.0002 </r>
       <r>    4.8351    0.0000 </r>
       <r>    6.6684    0.0000 </r>
       <r>    7.3467    0.0000 </r>
       <r>    8.3875    0.0000 </r>
      </set>
      <set comment="kpoint 9">
       <r>   -0.5859    1.0000 </r>
       <r>    0.3197    1.0012 </r>
       <r>    5.5049    0.0000 </r>
       <r>    6.3437    0.0000 </r>
       <r>    7.3102    0.0000 </r>
       <r>    8.1067    0.0000 </r>
      </set>
      <set comment="kpoint 10">
       <r>   -1.5103    1.0000 </r>
       <r>    2.6873    0.0000 </r>
       <r>    3.2622    0.0000 </r>
       <r>    6.4916    0.0000 </r>
       <r>    7.2168    0.0000 </r>
       <r>    8.2997    0.0000 </r>
      </set>
      <set comment="kpoint 11">
       <r>   -0.9545    1.0000 </r>
       <r>    1.7205    0.0000 </r>
       <r>    3.5415    0.0000 </r>
       <r>    6.0599    0.0000 </r>
       <r>    6.9725    0.0000 </r>
       <r>    8.8477    0.0000 </r>
      </set>
      <set comment="kpoint 12">
       <r>   -0.2215    1.0000 </r>
       <r>    0.6766    0.9642 </r>
       <r>    4.2072    0.0000 </r>
       <r>    5.0531    0.0000 </r>
       <r>    7.6096    0.0000 </r>
       <r>    8.3974    0.0000 </r>
      </set>
      <set comment="kpoint 13">
       <r>   -0.4048    1.0000 </r>
       <r>    2.0295    0.0000 </r>
       <r>    2.5626    0.0000 </r>
       <r>    4.8937    0.0000 </r>
       <r>    7.4446    0.0000 </r>
       <r>    9.3931    0.0000 </r>
      </set>
      <set comment="kpoint 14">
       <r>    0.3196    1.0012 </r>
       <r>    1.1991   -0.0109 </r>
       <r>    3.0310    0.0000 </r>
       <r>    3.8777    0.0000 </r>
       <r>    8.0688    0.0000 </r>
       <r>    8.8171    0.0000 </r>
      </set>
      <set comment="kpoint 15">
       <r>    1.0242   -0.0275 </r>
       <r>    1.6980    0.0000 </r>
       <r>    2.1977    0.0000 </r>
       <r>    2.8585    0.0000 </r>
       <r>    8.6496    0.0000 </r>
       <r>    9.1099    0.0000 </r>
      </set>
      <set comment="kpoint 16">
       <r>   -2.0708    1.0000 </r>
       <r>    3.8502    0.0000 </r>
       <r>    3.8502    0.0000 </r>
       <r>    4.9896    0.0000 </r>
       <r>    8.9095    0.0000 </r>
       <r>    8.9095    0.0000 </r>
      </set>
      <set comment="kpoint 17">
       <r>   -1.6964    1.0000 </r>
       <r>    2.7328    0.0000 </r>
       <r>    4.1837    0.0000 </r>
       <r>    5.1048    0.0000 </r>
       <r>    8.3732    0.0000 </r>
       <r>    8.9879    0.0000 </r>
      </set>
      <set comment="kpoint 18">
       <r>   -1.1386    1.0000 </r>
       <r>    1.5566    0.0000 </r>
       <r>    4.6858    0.0000 </r>
       <r>    5.5749    0.0000 </r>
       <r>    7.1984    0.0000 </r>
       <r>    7.9847    0.0000 </r>
      </set>
      <set comment="kpoint 19">
       <r>   -0.4034    1.0000 </r>
       <r>    0.4986    1.0229 </r>
       <r>    5.3543    0.0000 </r>
       <r>    6.1922    0.0000 </r>
       <r>    6.2313    0.0000 </r>
       <r>    7.0436    0.0000 </r>
      </set>
      <set comment="kpoint 20">
       <r>   -1.3244    1.0000 </r>
       <r>    2.8536    0.0000 </r>
       <r>    3.3696    0.0000 </r>
       <r>    5.1312    0.0000 </r>
       <r>    7.3171    0.0000 </r>
       <r>    8.6974    0.0000 </r>
      </set>
      <set comment="kpoint 21">
       <r>   -0.7703    1.0000 </r>
       <r>    1.8912    0.0000 </r>
       <r>    3.6734    0.0000 </r>
       <r>    5.5944    0.0000 </r>
       <r>    6.1768    0.0000 </r>
       <r>    7.9512    0.0000 </r>
      </set>
      <set comment="kpoint 22">
       <r>   -0.0401    1.0000 </r>
       <r>    0.8537    0.3565 </r>
       <r>    4.3370    0.0000 </r>
       <r>    5.1780    0.0000 </r>
       <r>    6.2458    0.0000 </r>
       <r>    7.0508    0.0000 </r>
      </set>
      <set comment="kpoint 23">
       <r>   -0.2219    1.0000 </r>
       <r>    2.1921    0.0000 </r>
       <r>    2.7301    0.0000 </r>
       <r>    5.0423    0.0000 </r>
       <r>    6.0477    0.0000 </r>
       <r>    8.0200    0.0000 </r>
      </set>
      <set comment="kpoint 24">
       <r>    0.4982    1.0228 </r>
       <r>    1.3727   -0.0003 </r>
       <r>    3.1952    0.0000 </r>
       <r>    4.0364    0.0000 </r>
       <r>    6.6809    0.0000 </r>
       <r>    7.4279    0.0000 </r>
      </set>
      <set comment="kpoint 25">
       <r>    1.1987   -0.0110 </r>
       <r>    1.8635    0.0000 </r>
       <r>    2.3776    0.0000 </r>
       <r>    3.0289    0.0000 </r>
       <r>    7.2556    0.0000 </r>
       <r>    7.6809    0.0000 </r>
      </set>
      <set comment="kpoint 26">
       <r>   -0.9549    1.0000 </r>
       <r>    3.1884    0.0000 </r>
       <r>    3.1884    0.0000 </r>
       <r>    4.3187    0.0000 </r>
       <r>    7.3592    0.0000 </r>
       <r>    7.3592    0.0000 </r>
      </set>
      <set comment="kpoint 27">
       <r>   -0.4046    1.0000 </r>
       <r>    2.2215    0.0000 </r>
       <r>    3.6859    0.0000 </r>
       <r>    4.5952    0.0000 </r>
       <r>    6.1874    0.0000 </r>
       <r>    6.8678    0.0000 </r>
      </set>
      <set comment="kpoint 28">
       <r>    0.3203    1.0012 </r>
       <r>    1.2049   -0.0100 </r>
       <r>    4.3513    0.0000 </r>
       <r>    5.1864    0.0000 </r>
       <r>    5.2349    0.0000 </r>
       <r>    6.0318    0.0000 </r>
      </set>
      <set comment="kpoint 29">
       <r>    0.1404    1.0000 </r>
       <r>    2.5231    0.0000 </r>
       <r>    3.0188    0.0000 </r>
       <r>    4.7789    0.0000 </r>
       <r>    5.3062    0.0000 </r>
       <r>    6.6882    0.0000 </r>
      </set>
      <set comment="kpoint 30">
       <r>    0.8540    0.3551 </r>
       <r>    1.7176    0.0000 </r>
       <r>    3.4986    0.0000 </r>
       <r>    4.3265    0.0000 </r>
       <r>    5.3925    0.0000 </r>
       <r>    6.1293    0.0000 </r>
      </set>
      <set comment="kpoint 31">
       <r>    1.5461    0.0000 </r>
       <r>    2.1940    0.0000 </r>
       <r>    2.7224    0.0000 </r>
       <r>    3.3564    0.0000 </r>
       <r>    5.9390    0.0000 </r>
       <r>    6.3507    0.0000 </r>
      </set>
      <set comment="kpoint 32">
       <r>    0.6765    0.9644 </r>
       <r>    3.0205    0.0000 </r>
       <r>    3.0205    0.0000 </r>
       <r>    4.1049    0.0000 </r>
       <r>    5.5181    0.0000 </r>
       <r>    5.5181    0.0000 </r>
      </set>
      <set comment="kpoint 33">
       <r>    1.3783   -0.0003 </r>
       <r>    2.2197    0.0000 </r>
       <r>    3.6838    0.0000 </r>
       <r>    4.5164    0.0000 </r>
       <r>    4.5270    0.0000 </r>
       <r>    5.1898    0.0000 </r>
      </set>
      <set comment="kpoint 34">
       <r>    2.0577    0.0000 </r>
       <r>    2.6906    0.0000 </r>
       <r>    3.1759    0.0000 </r>
       <r>    3.8013    0.0000 </r>
       <r>    4.8093    0.0000 </r>
       <r>    5.1826    0.0000 </r>
      </set>
      <set comment="kpoint 35">
       <r>    2.7134    0.0000 </r>
       <r>    3.3545    0.0000 </r>
       <r>    3.3545    0.0000 </r>
       <r>    4.1729    0.0000 </r>
       <r>    4.1826    0.0000 </r>
       <r>    4.1826    0.0000 </r>
      </set>
     </set>
    </set>
   </array>
  </eigenvalues>
  <separator name="orbital magnetization" >
   <v name="MAGDIPOLOUT">      0.00000000      0.00000000      0.00000000</v>
  </separator>
 </calculation>
 <structure name="finalpos" >
  <crystal>
   <varray name="basis" >
    <v>       4.04746763       0.00000000       0.00000000 </v>
    <v>       0.00000000       4.04746763       0.00000000 </v>
    <v>       0.00000000       0.00000000       4.04746763 </v>
   </varray>
   <i name="volume">     66.30559111 </i>
   <varray name="rec_basis" >
    <v>       0.24706807       0.00000000       0.00000000 </v>
    <v>       0.00000000       0.24706807       0.00000000 </v>
    <v>       0.00000000       0.00000000       0.24706807 </v>
   </varray>
  </crystal>
  <varray name="positions" >
   <v>       0.00000000       0.00000000       0.00000000 </v>
   <v>       0.50000000       0.50000000       0.50000000 </v>
  </varray>
 </structure>
</modeling>
