bcc Na                                  
           1
     4.290600    0.000000    0.000000
     0.000000    4.290600    0.000000
     0.000000    0.000000    4.290600
   Na
   2
bcc Na                                  
           1
     4.228841    0.000000    0.000000
     0.000000    4.228841    0.000000
     0.000000    0.000000    4.228841
   Na
   2
Direct configuration=     1
   0.00000000  0.00000000  0.00000000
   0.50000000  0.50000000  0.50000000
bcc Na                                  
           1
     4.094494    0.000000    0.000000
     0.000000    4.094494    0.000000
     0.000000    0.000000    4.094494
   Na
   2
Direct configuration=     2
   0.00000000  0.00000000  0.00000000
   0.50000000  0.50000000  0.50000000
bcc Na                                  
           1
     4.040465    0.000000    0.000000
     0.000000    4.040465    0.000000
     0.000000    0.000000    4.040465
   Na
   2
Direct configuration=     3
   0.00000000  0.00000000  0.00000000
   0.50000000  0.50000000  0.50000000
bcc Na                                  
           1
     4.047468    0.000000    0.000000
     0.000000    4.047468    0.000000
     0.000000    0.000000    4.047468
   Na
   2
Direct configuration=     4
   0.00000000  0.00000000  0.00000000
   0.50000000  0.50000000  0.50000000
bcc Na                                  
           1
     4.047468    0.000000    0.000000
     0.000000    4.047468    0.000000
     0.000000    0.000000    4.047468
   Na
   2
Direct configuration=     5
   0.00000000  0.00000000  0.00000000
   0.50000000  0.50000000  0.50000000
