Al                                      
   4.05000000000000     
     0.000000    0.500000    0.500000
     0.500000    0.000000    0.500000
     0.500000    0.500000    0.000000
   Al
     1
Direct
  0.000000  0.000000  0.000000
 
   24   24   24
 -.21412144207E+00 -.65097361348E-01 0.36183166494E+00 0.10025704186E+01 0.17481162675E+01
 0.24634899200E+01 0.30278884232E+01 0.33758619294E+01 0.35148812119E+01 0.35104471738E+01
 0.34431264365E+01 0.33747345489E+01 0.33470396089E+01 0.33747345489E+01 0.34431264365E+01
 0.35104471738E+01 0.35148812119E+01 0.33758619294E+01 0.30278884232E+01 0.24634899200E+01
 0.17481162675E+01 0.10025704186E+01 0.36183166494E+00 -.65097361348E-01 -.65097361348E-01
 0.22303482931E+00 0.75716657505E+00 0.14499344902E+01 0.21769824799E+01 0.28076908652E+01
 0.32481988164E+01 0.34719605815E+01 0.35199272377E+01 0.34707296776E+01 0.33941883915E+01
 0.33418348523E+01 0.33418670419E+01 0.33942209702E+01 0.34706987735E+01 0.35198962683E+01
 0.34719926831E+01 0.32482330526E+01 0.28076687686E+01 0.21769607594E+01 0.14499497914E+01
 0.75713561687E+00 0.22292091547E+00 -.65167850371E-01 0.36183166494E+00 0.75716657505E+00
 0.13434974151E+01 0.20150242779E+01 0.26463897067E+01 0.31300988690E+01 0.34125581274E+01
 0.35074431664E+01 0.34792229792E+01 0.34005992007E+01 0.33279085626E+01 0.32992408046E+01
 0.33279087273E+01 0.34005994352E+01 0.34792231828E+01 0.35074433362E+01 0.34125584308E+01
 0.31300995578E+01 0.26463909974E+01 0.20150261552E+01 0.13434995853E+01 0.75716851614E+00
 0.36183281152E+00 0.22292091547E+00 0.10025704186E+01 0.14499344902E+01 0.20150242779E+01
 0.25873330031E+01 0.30596680027E+01 0.33628227259E+01 0.34866994330E+01 0.34758147406E+01
 0.33977353486E+01 0.33092755843E+01 0.32535527335E+01 0.32535302242E+01 0.33092535276E+01
 0.33977588584E+01 0.34758367585E+01 0.34866723768E+01 0.33627938092E+01 0.30596914394E+01
 0.25873732935E+01 0.20150360042E+01 0.14499507668E+01 0.10026218222E+01 0.75716851614E+00
 0.75713561687E+00 0.17481162675E+01 0.21769824799E+01 0.26463897067E+01 0.30596680027E+01
 0.33435777074E+01 0.34718340276E+01 0.34692229408E+01 0.33913707162E+01 0.32910772676E+01
 0.32120493152E+01 0.31825289119E+01 0.32120494355E+01 0.32910773456E+01 0.33913705519E+01
 0.34692224806E+01 0.34718334482E+01 0.33435773791E+01 0.30596682862E+01 0.26463907275E+01
 0.21769840389E+01 0.17481178388E+01 0.14499507668E+01 0.13434995853E+01 0.14499497914E+01
 0.24634899200E+01 0.28076908652E+01 0.31300988690E+01 0.33628227259E+01 0.34718340276E+01
 0.34661558431E+01 0.33866651312E+01 0.32780867820E+01 0.31810038043E+01 0.31250345604E+01
 0.31250417127E+01 0.31810094514E+01 0.32780771171E+01 0.33866604872E+01 0.34661718956E+01
 0.34718428561E+01 0.33627932194E+01 0.31300505003E+01 0.28076682823E+01 0.24635033383E+01
 0.21769840389E+01 0.20150360042E+01 0.20150261552E+01 0.21769607594E+01 0.30278884232E+01
 0.32481988164E+01 0.34125581274E+01 0.34866994330E+01 0.34692229408E+01 0.33866651312E+01
 0.32733831840E+01 0.31645180196E+01 0.30881237627E+01 0.30608770273E+01 0.30881241187E+01
 0.31645186030E+01 0.32733837958E+01 0.33866655636E+01 0.34692230581E+01 0.34866992142E+01
 0.34125576227E+01 0.32481981969E+01 0.30278878083E+01 0.28076682823E+01 0.26463907275E+01
 0.25873732935E+01 0.26463909974E+01 0.28076687686E+01 0.33758619294E+01 0.34719605815E+01
 0.35074431664E+01 0.34758147406E+01 0.33913707162E+01 0.32780867820E+01 0.31645180196E+01
 0.30754502940E+01 0.30271672594E+01 0.30271726097E+01 0.30754577184E+01 0.31645152340E+01
 0.32780776817E+01 0.33913723099E+01 0.34758377895E+01 0.35074809903E+01 0.34719922133E+01
 0.33758640006E+01 0.32481981969E+01 0.31300505003E+01 0.30596682862E+01 0.30596914394E+01
 0.31300995578E+01 0.32482330526E+01 0.35148812119E+01 0.35199272377E+01 0.34792229792E+01
 0.33977353486E+01 0.32910772676E+01 0.31810038043E+01 0.30881237627E+01 0.30271672594E+01
 0.30060589023E+01 0.30271669678E+01 0.30881234795E+01 0.31810039411E+01 0.32910780536E+01
 0.33977367023E+01 0.34792244314E+01 0.35199282903E+01 0.35148815094E+01 0.34719922133E+01
 0.34125576227E+01 0.33627932194E+01 0.33435773791E+01 0.33627938092E+01 0.34125584308E+01
 0.34719926831E+01 0.35104471738E+01 0.34707296776E+01 0.34005992007E+01 0.33092755843E+01
 0.32120493152E+01 0.31250345604E+01 0.30608770273E+01 0.30271726097E+01 0.30271669678E+01
 0.30608713446E+01 0.31250406407E+01 0.32120528410E+01 0.33092538101E+01 0.34005575126E+01
 0.34706999752E+01 0.35104517780E+01 0.35199282903E+01 0.35074809903E+01 0.34866992142E+01
 0.34718428561E+01 0.34718334482E+01 0.34866723768E+01 0.35074433362E+01 0.35198962683E+01
 0.34431264365E+01 0.33941883915E+01 0.33279085626E+01 0.32535527335E+01 0.31825289119E+01
 0.31250417127E+01 0.30881241187E+01 0.30754577184E+01 0.30881234795E+01 0.31250406407E+01
 0.31825277362E+01 0.32535518253E+01 0.33279081801E+01 0.33941886555E+01 0.34431272916E+01
 0.34706999752E+01 0.34792244314E+01 0.34758377895E+01 0.34692230581E+01 0.34661718956E+01
 0.34692224806E+01 0.34758367585E+01 0.34792231828E+01 0.34706987735E+01 0.33747345489E+01
 0.33418348523E+01 0.32992408046E+01 0.32535302242E+01 0.32120494355E+01 0.31810094514E+01
 0.31645186030E+01 0.31645152340E+01 0.31810039411E+01 0.32120528410E+01 0.32535518253E+01
 0.32992771644E+01 0.33418657122E+01 0.33747358733E+01 0.33941886555E+01 0.34005575126E+01
 0.33977367023E+01 0.33913723099E+01 0.33866655636E+01 0.33866604872E+01 0.33913705519E+01
 0.33977588584E+01 0.34005994352E+01 0.33942209702E+01 0.33470396089E+01 0.33418670419E+01
 0.33279087273E+01 0.33092535276E+01 0.32910773456E+01 0.32780771171E+01 0.32733837958E+01
 0.32780776817E+01 0.32910780536E+01 0.33092538101E+01 0.33279081801E+01 0.33418657122E+01
 0.33470379673E+01 0.33418657122E+01 0.33279081801E+01 0.33092538101E+01 0.32910780536E+01
 0.32780776817E+01 0.32733837958E+01 0.32780771171E+01 0.32910773456E+01 0.33092535276E+01
 0.33279087273E+01 0.33418670419E+01 0.33747345489E+01 0.33942209702E+01 0.34005994352E+01
 0.33977588584E+01 0.33913705519E+01 0.33866604872E+01 0.33866655636E+01 0.33913723099E+01
 0.33977367023E+01 0.34005575126E+01 0.33941886555E+01 0.33747358733E+01 0.33418657122E+01
 0.32992771644E+01 0.32535518253E+01 0.32120528410E+01 0.31810039411E+01 0.31645152340E+01
 0.31645186030E+01 0.31810094514E+01 0.32120494355E+01 0.32535302242E+01 0.32992408046E+01
 0.33418348523E+01 0.34431264365E+01 0.34706987735E+01 0.34792231828E+01 0.34758367585E+01
 0.34692224806E+01 0.34661718956E+01 0.34692230581E+01 0.34758377895E+01 0.34792244314E+01
 0.34706999752E+01 0.34431272916E+01 0.33941886555E+01 0.33279081801E+01 0.32535518253E+01
 0.31825277362E+01 0.31250406407E+01 0.30881234795E+01 0.30754577184E+01 0.30881241187E+01
 0.31250417127E+01 0.31825289119E+01 0.32535527335E+01 0.33279085626E+01 0.33941883915E+01
 0.35104471738E+01 0.35198962683E+01 0.35074433362E+01 0.34866723768E+01 0.34718334482E+01
 0.34718428561E+01 0.34866992142E+01 0.35074809903E+01 0.35199282903E+01 0.35104517780E+01
 0.34706999752E+01 0.34005575126E+01 0.33092538101E+01 0.32120528410E+01 0.31250406407E+01
 0.30608713446E+01 0.30271669678E+01 0.30271726097E+01 0.30608770273E+01 0.31250345604E+01
 0.32120493152E+01 0.33092755843E+01 0.34005992007E+01 0.34707296776E+01 0.35148812119E+01
 0.34719926831E+01 0.34125584308E+01 0.33627938092E+01 0.33435773791E+01 0.33627932194E+01
 0.34125576227E+01 0.34719922133E+01 0.35148815094E+01 0.35199282903E+01 0.34792244314E+01
 0.33977367023E+01 0.32910780536E+01 0.31810039411E+01 0.30881234795E+01 0.30271669678E+01
 0.30060589023E+01 0.30271672594E+01 0.30881237627E+01 0.31810038043E+01 0.32910772676E+01
 0.33977353486E+01 0.34792229792E+01 0.35199272377E+01 0.33758619294E+01 0.32482330526E+01
 0.31300995578E+01 0.30596914394E+01 0.30596682862E+01 0.31300505003E+01 0.32481981969E+01
 0.33758640006E+01 0.34719922133E+01 0.35074809903E+01 0.34758377895E+01 0.33913723099E+01
 0.32780776817E+01 0.31645152340E+01 0.30754577184E+01 0.30271726097E+01 0.30271672594E+01
 0.30754502940E+01 0.31645180196E+01 0.32780867820E+01 0.33913707162E+01 0.34758147406E+01
 0.35074431664E+01 0.34719605815E+01 0.30278884232E+01 0.28076687686E+01 0.26463909974E+01
 0.25873732935E+01 0.26463907275E+01 0.28076682823E+01 0.30278878083E+01 0.32481981969E+01
 0.34125576227E+01 0.34866992142E+01 0.34692230581E+01 0.33866655636E+01 0.32733837958E+01
 0.31645186030E+01 0.30881241187E+01 0.30608770273E+01 0.30881237627E+01 0.31645180196E+01
 0.32733831840E+01 0.33866651312E+01 0.34692229408E+01 0.34866994330E+01 0.34125581274E+01
 0.32481988164E+01 0.24634899200E+01 0.21769607594E+01 0.20150261552E+01 0.20150360042E+01
 0.21769840389E+01 0.24635033383E+01 0.28076682823E+01 0.31300505003E+01 0.33627932194E+01
 0.34718428561E+01 0.34661718956E+01 0.33866604872E+01 0.32780771171E+01 0.31810094514E+01
 0.31250417127E+01 0.31250345604E+01 0.31810038043E+01 0.32780867820E+01 0.33866651312E+01
 0.34661558431E+01 0.34718340276E+01 0.33628227259E+01 0.31300988690E+01 0.28076908652E+01
 0.17481162675E+01 0.14499497914E+01 0.13434995853E+01 0.14499507668E+01 0.17481178388E+01
 0.21769840389E+01 0.26463907275E+01 0.30596682862E+01 0.33435773791E+01 0.34718334482E+01
 0.34692224806E+01 0.33913705519E+01 0.32910773456E+01 0.32120494355E+01 0.31825289119E+01
 0.32120493152E+01 0.32910772676E+01 0.33913707162E+01 0.34692229408E+01 0.34718340276E+01
 0.33435777074E+01 0.30596680027E+01 0.26463897067E+01 0.21769824799E+01 0.10025704186E+01
 0.75713561687E+00 0.75716851614E+00 0.10026218222E+01 0.14499507668E+01 0.20150360042E+01
 0.25873732935E+01 0.30596914394E+01 0.33627938092E+01 0.34866723768E+01 0.34758367585E+01
 0.33977588584E+01 0.33092535276E+01 0.32535302242E+01 0.32535527335E+01 0.33092755843E+01
 0.33977353486E+01 0.34758147406E+01 0.34866994330E+01 0.33628227259E+01 0.30596680027E+01
 0.25873330031E+01 0.20150242779E+01 0.14499344902E+01 0.36183166494E+00 0.22292091547E+00
 0.36183281152E+00 0.75716851614E+00 0.13434995853E+01 0.20150261552E+01 0.26463909974E+01
 0.31300995578E+01 0.34125584308E+01 0.35074433362E+01 0.34792231828E+01 0.34005994352E+01
 0.33279087273E+01 0.32992408046E+01 0.33279085626E+01 0.34005992007E+01 0.34792229792E+01
 0.35074431664E+01 0.34125581274E+01 0.31300988690E+01 0.26463897067E+01 0.20150242779E+01
 0.13434974151E+01 0.75716657505E+00 -.65097361348E-01 -.65167850371E-01 0.22292091547E+00
 0.75713561687E+00 0.14499497914E+01 0.21769607594E+01 0.28076687686E+01 0.32482330526E+01
 0.34719926831E+01 0.35198962683E+01 0.34706987735E+01 0.33942209702E+01 0.33418670419E+01
 0.33418348523E+01 0.33941883915E+01 0.34707296776E+01 0.35199272377E+01 0.34719605815E+01
 0.32481988164E+01 0.28076908652E+01 0.21769824799E+01 0.14499344902E+01 0.75716657505E+00
 0.22303482931E+00 -.65097361348E-01 0.22303482931E+00 0.75716657505E+00 0.14499344902E+01
 0.21769824799E+01 0.28076908652E+01 0.32481988164E+01 0.34719605815E+01 0.35199272377E+01
 0.34707296776E+01 0.33941883915E+01 0.33418348523E+01 0.33418670419E+01 0.33942209702E+01
 0.34706987735E+01 0.35198962683E+01 0.34719926831E+01 0.32482330526E+01 0.28076687686E+01
 0.21769607594E+01 0.14499497914E+01 0.75713561687E+00 0.22292091547E+00 -.65167850371E-01
 0.22303482931E+00 0.63140819488E+00 0.12388395303E+01 0.19375674326E+01 0.25985751687E+01
 0.31099075189E+01 0.34142918629E+01 0.35237304962E+01 0.35033530834E+01 0.34285155916E+01
 0.33572752388E+01 0.33289338420E+01 0.33572753682E+01 0.34285198064E+01 0.35033578252E+01
 0.35237274723E+01 0.34142875073E+01 0.31099232160E+01 0.25986104656E+01 0.19375726071E+01
 0.12387557735E+01 0.63124832111E+00 0.22290230758E+00 0.79707800156E-01 0.75716657505E+00
 0.12388395303E+01 0.18515395470E+01 0.24785772496E+01 0.30046396552E+01 0.33529350501E+01
 0.35088199941E+01 0.35164146100E+01 0.34475200477E+01 0.33628731708E+01 0.33082399118E+01
 0.33082153086E+01 0.33628504403E+01 0.34475485145E+01 0.35164393987E+01 0.35087903223E+01
 0.33529107379E+01 0.30046791937E+01 0.24786188333E+01 0.18515049654E+01 0.12387656759E+01
 0.75712921761E+00 0.49400194191E+00 0.49400562607E+00 0.14499344902E+01 0.19375674326E+01
 0.24785772496E+01 0.29655175635E+01 0.33142719074E+01 0.34909590600E+01 0.35180978843E+01
 0.34554305096E+01 0.33617810067E+01 0.32847224591E+01 0.32554850856E+01 0.32847184883E+01
 0.33617816532E+01 0.34554364979E+01 0.35180979297E+01 0.34909477158E+01 0.33142626022E+01
 0.29655286850E+01 0.24786089070E+01 0.19376004208E+01 0.14499523020E+01 0.11137396558E+01
 0.99419918346E+00 0.11137356012E+01 0.21769824799E+01 0.25985751687E+01 0.30046396552E+01
 0.33142719074E+01 0.34833209891E+01 0.35163923023E+01 0.34574172577E+01 0.33581257510E+01
 0.32637315214E+01 0.32079341533E+01 0.32079429348E+01 0.32637404553E+01 0.33581184769E+01
 0.34574118434E+01 0.35164027262E+01 0.34833267378E+01 0.33142613752E+01 0.30046382641E+01
 0.25985938662E+01 0.21769872787E+01 0.18315220846E+01 0.16379392040E+01 0.16379587566E+01
 0.18315490580E+01 0.28076908652E+01 0.31099075189E+01 0.33529350501E+01 0.34909590600E+01
 0.35163923023E+01 0.34575602464E+01 0.33553213838E+01 0.32494807340E+01 0.31727151178E+01
 0.31449602360E+01 0.31727162742E+01 0.32494810693E+01 0.33553232697E+01 0.34575689629E+01
 0.35164044493E+01 0.34909587716E+01 0.33529102905E+01 0.31098686237E+01 0.28076639570E+01
 0.25161225331E+01 0.23064848044E+01 0.22303780604E+01 0.23064746935E+01 0.25161239627E+01
 0.32481988164E+01 0.34142918629E+01 0.35088199941E+01 0.35180978843E+01 0.34574172577E+01
 0.33553213838E+01 0.32444536051E+01 0.31541547880E+01 0.31042998176E+01 0.31043000190E+01
 0.31541556387E+01 0.32444555449E+01 0.33553245663E+01 0.34574209840E+01 0.35181005750E+01
 0.35088201857E+01 0.34142902551E+01 0.32481986942E+01 0.30513550458E+01 0.28778198679E+01
 0.27766859290E+01 0.27766829363E+01 0.28778137657E+01 0.30513511156E+01 0.34719605815E+01
 0.35237304962E+01 0.35164146100E+01 0.34554305096E+01 0.33581257510E+01 0.32494807340E+01
 0.31541547880E+01 0.30903204034E+01 0.30680235181E+01 0.30903231490E+01 0.31541562493E+01
 0.32494772982E+01 0.33581206212E+01 0.34554352615E+01 0.35164399616E+01 0.35237716251E+01
 0.34719938460E+01 0.33757815864E+01 0.32668414499E+01 0.31820753853E+01 0.31502435751E+01
 0.31821047228E+01 0.32668700242E+01 0.33757799214E+01 0.35199272377E+01 0.35033530834E+01
 0.34475200477E+01 0.33617810067E+01 0.32637315214E+01 0.31727151178E+01 0.31042998176E+01
 0.30680235181E+01 0.30680201911E+01 0.31042956522E+01 0.31727170254E+01 0.32637359420E+01
 0.33617824729E+01 0.34475215056E+01 0.35033577735E+01 0.35199300118E+01 0.34988411674E+01
 0.34527691151E+01 0.34031781220E+01 0.33717152238E+01 0.33717135211E+01 0.34031774347E+01
 0.34527733727E+01 0.34988446594E+01 0.34707296776E+01 0.34285155916E+01 0.33628731708E+01
 0.32847224591E+01 0.32079341533E+01 0.31449602360E+01 0.31043000190E+01 0.30903231490E+01
 0.31042956522E+01 0.31449612809E+01 0.32079423750E+01 0.32847229152E+01 0.33628505445E+01
 0.34284764257E+01 0.34707002036E+01 0.34856180081E+01 0.34777716986E+01 0.34579121595E+01
 0.34388304116E+01 0.34311052076E+01 0.34388131523E+01 0.34578828710E+01 0.34777466225E+01
 0.34856178212E+01 0.33941883915E+01 0.33572752388E+01 0.33082399118E+01 0.32554850856E+01
 0.32079429348E+01 0.31727162742E+01 0.31541556387E+01 0.31541562493E+01 0.31727170254E+01
 0.32079423750E+01 0.32554837063E+01 0.33082392128E+01 0.33572755993E+01 0.33941892734E+01
 0.34139839321E+01 0.34169173482E+01 0.34082308702E+01 0.33958876513E+01 0.33874601522E+01
 0.33874607393E+01 0.33958885337E+01 0.34082307920E+01 0.34169163626E+01 0.34139828187E+01
 0.33418348523E+01 0.33289338420E+01 0.33082153086E+01 0.32847184883E+01 0.32637404553E+01
 0.32494810693E+01 0.32444555449E+01 0.32494772982E+01 0.32637359420E+01 0.32847229152E+01
 0.33082392128E+01 0.33289730922E+01 0.33418659983E+01 0.33438621063E+01 0.33351738453E+01
 0.33193236372E+01 0.33018960868E+01 0.32886347128E+01 0.32837091713E+01 0.32886343502E+01
 0.33019098699E+01 0.33193552476E+01 0.33352025043E+01 0.33438620323E+01 0.33418670419E+01
 0.33572753682E+01 0.33628504403E+01 0.33617816532E+01 0.33581184769E+01 0.33553232697E+01
 0.33553245663E+01 0.33581206212E+01 0.33617824729E+01 0.33628505445E+01 0.33572755993E+01
 0.33418659983E+01 0.33157525713E+01 0.32811369889E+01 0.32428798371E+01 0.32071326389E+01
 0.31797131665E+01 0.31649038675E+01 0.31649044676E+01 0.31797135738E+01 0.32071317137E+01
 0.32428796524E+01 0.32811393459E+01 0.33157555230E+01 0.33942209702E+01 0.34285198064E+01
 0.34475485145E+01 0.34554364979E+01 0.34574118434E+01 0.34575689629E+01 0.34574209840E+01
 0.34554352615E+01 0.34475215056E+01 0.34284764257E+01 0.33941892734E+01 0.33438621063E+01
 0.32811369889E+01 0.32134281445E+01 0.31497910926E+01 0.30985085350E+01 0.30655456786E+01
 0.30542187298E+01 0.30655496219E+01 0.30985079607E+01 0.31497759455E+01 0.32133988549E+01
 0.32811108995E+01 0.33438620323E+01 0.34706987735E+01 0.35033578252E+01 0.35164393987E+01
 0.35180979297E+01 0.35164027262E+01 0.35164044493E+01 0.35181005750E+01 0.35164399616E+01
 0.35033577735E+01 0.34707002036E+01 0.34139839321E+01 0.33351738453E+01 0.32428798371E+01
 0.31497910926E+01 0.30688044349E+01 0.30099320466E+01 0.29792017602E+01 0.29792034976E+01
 0.30099346966E+01 0.30688049738E+01 0.31497910012E+01 0.32428812428E+01 0.33351749778E+01
 0.34139828187E+01 0.35198962683E+01 0.35237274723E+01 0.35087903223E+01 0.34909477158E+01
 0.34833267378E+01 0.34909587716E+01 0.35088201857E+01 0.35237716251E+01 0.35199300118E+01
 0.34856180081E+01 0.34169173482E+01 0.33193236372E+01 0.32071326389E+01 0.30985085350E+01
 0.30099320466E+01 0.29528377682E+01 0.29332223939E+01 0.29528413976E+01 0.30099326429E+01
 0.30985085819E+01 0.32071460614E+01 0.33193548162E+01 0.34169463959E+01 0.34856178212E+01
 0.34719926831E+01 0.34142875073E+01 0.33529107379E+01 0.33142626022E+01 0.33142613752E+01
 0.33529102905E+01 0.34142902551E+01 0.34719938460E+01 0.34988411674E+01 0.34777716986E+01
 0.34082308702E+01 0.33018960868E+01 0.31797131665E+01 0.30655456786E+01 0.29792017602E+01
 0.29332223939E+01 0.29332198743E+01 0.29791989903E+01 0.30655476649E+01 0.31797155758E+01
 0.33018940376E+01 0.34082287217E+01 0.34777744590E+01 0.34988446594E+01 0.32482330526E+01
 0.31099232160E+01 0.30046791937E+01 0.29655286850E+01 0.30046382641E+01 0.31098686237E+01
 0.32481986942E+01 0.33757815864E+01 0.34527691151E+01 0.34579121595E+01 0.33958876513E+01
 0.32886347128E+01 0.31649038675E+01 0.30542187298E+01 0.29792034976E+01 0.29528413976E+01
 0.29791989903E+01 0.30542160197E+01 0.31649064543E+01 0.32886359354E+01 0.33958757541E+01
 0.34578848741E+01 0.34527424374E+01 0.33757799214E+01 0.28076687686E+01 0.25986104656E+01
 0.24786188333E+01 0.24786089070E+01 0.25985938662E+01 0.28076639570E+01 0.30513550458E+01
 0.32668414499E+01 0.34031781220E+01 0.34388304116E+01 0.33874601522E+01 0.32837091713E+01
 0.31649044676E+01 0.30655496219E+01 0.30099346966E+01 0.30099326429E+01 0.30655476649E+01
 0.31649064543E+01 0.32837110698E+01 0.33874598931E+01 0.34388333013E+01 0.34031843687E+01
 0.32668424705E+01 0.30513511156E+01 0.21769607594E+01 0.19375726071E+01 0.18515049654E+01
 0.19376004208E+01 0.21769872787E+01 0.25161225331E+01 0.28778198679E+01 0.31820753853E+01
 0.33717152238E+01 0.34311052076E+01 0.33874607393E+01 0.32886343502E+01 0.31797135738E+01
 0.30985079607E+01 0.30688049738E+01 0.30985085819E+01 0.31797155758E+01 0.32886359354E+01
 0.33874598931E+01 0.34311070145E+01 0.33717304656E+01 0.31821056134E+01 0.28778473534E+01
 0.25161239627E+01 0.14499497914E+01 0.12387557735E+01 0.12387656759E+01 0.14499523020E+01
 0.18315220846E+01 0.23064848044E+01 0.27766859290E+01 0.31502435751E+01 0.33717135211E+01
 0.34388131523E+01 0.33958885337E+01 0.33019098699E+01 0.32071317137E+01 0.31497759455E+01
 0.31497910012E+01 0.32071460614E+01 0.33018940376E+01 0.33958757541E+01 0.34388333013E+01
 0.33717304656E+01 0.31502238478E+01 0.27766658073E+01 0.23065031319E+01 0.18315490580E+01
 0.75713561687E+00 0.63124832111E+00 0.75712921761E+00 0.11137396558E+01 0.16379392040E+01
 0.22303780604E+01 0.27766829363E+01 0.31821047228E+01 0.34031774347E+01 0.34578828710E+01
 0.34082307920E+01 0.33193552476E+01 0.32428796524E+01 0.32133988549E+01 0.32428812428E+01
 0.33193548162E+01 0.34082287217E+01 0.34578848741E+01 0.34031843687E+01 0.31821056134E+01
 0.27766658073E+01 0.22303475560E+01 0.16379154779E+01 0.11137356012E+01 0.22292091547E+00
 0.22290230758E+00 0.49400194191E+00 0.99419918346E+00 0.16379587566E+01 0.23064746935E+01
 0.28778137657E+01 0.32668700242E+01 0.34527733727E+01 0.34777466225E+01 0.34169163626E+01
 0.33352025043E+01 0.32811393459E+01 0.32811108995E+01 0.33351749778E+01 0.34169463959E+01
 0.34777744590E+01 0.34527424374E+01 0.32668424705E+01 0.28778473534E+01 0.23065031319E+01
 0.16379154779E+01 0.99414402540E+00 0.49400562607E+00 -.65167850371E-01 0.79707800156E-01
 0.49400562607E+00 0.11137356012E+01 0.18315490580E+01 0.25161239627E+01 0.30513511156E+01
 0.33757799214E+01 0.34988446594E+01 0.34856178212E+01 0.34139828187E+01 0.33438620323E+01
 0.33157555230E+01 0.33438620323E+01 0.34139828187E+01 0.34856178212E+01 0.34988446594E+01
 0.33757799214E+01 0.30513511156E+01 0.25161239627E+01 0.18315490580E+01 0.11137356012E+01
 0.49400562607E+00 0.79707800156E-01 0.36183166494E+00 0.75716657505E+00 0.13434974151E+01
 0.20150242779E+01 0.26463897067E+01 0.31300988690E+01 0.34125581274E+01 0.35074431664E+01
 0.34792229792E+01 0.34005992007E+01 0.33279085626E+01 0.32992408046E+01 0.33279087273E+01
 0.34005994352E+01 0.34792231828E+01 0.35074433362E+01 0.34125584308E+01 0.31300995578E+01
 0.26463909974E+01 0.20150261552E+01 0.13434995853E+01 0.75716851614E+00 0.36183281152E+00
 0.22292091547E+00 0.75716657505E+00 0.12388395303E+01 0.18515395470E+01 0.24785772496E+01
 0.30046396552E+01 0.33529350501E+01 0.35088199941E+01 0.35164146100E+01 0.34475200477E+01
 0.33628731708E+01 0.33082399118E+01 0.33082153086E+01 0.33628504403E+01 0.34475485145E+01
 0.35164393987E+01 0.35087903223E+01 0.33529107379E+01 0.30046791937E+01 0.24786188333E+01
 0.18515049654E+01 0.12387656759E+01 0.75712921761E+00 0.49400194191E+00 0.49400562607E+00
 0.13434974151E+01 0.18515395470E+01 0.24175557752E+01 0.29304108852E+01 0.33021947231E+01
 0.34962929817E+01 0.35343041458E+01 0.34771904085E+01 0.33860148253E+01 0.33097306071E+01
 0.32806235693E+01 0.33097307537E+01 0.33860148960E+01 0.34771901397E+01 0.35343034935E+01
 0.34962922298E+01 0.33021944350E+01 0.29304115671E+01 0.24175576204E+01 0.18515421502E+01
 0.13434999627E+01 0.99414561242E+00 0.87009250256E+00 0.99414402540E+00 0.20150242779E+01
 0.24785772496E+01 0.29304108852E+01 0.32825636434E+01 0.34852633083E+01 0.35405038048E+01
 0.34933472115E+01 0.33995343182E+01 0.33068772346E+01 0.32512995696E+01 0.32513100431E+01
 0.33068857287E+01 0.33995201888E+01 0.34933367524E+01 0.35405160882E+01 0.34852658296E+01
 0.32825353780E+01 0.29303957432E+01 0.24786182934E+01 0.20150930624E+01 0.16379593534E+01
 0.14274396138E+01 0.14274285314E+01 0.16379154779E+01 0.26463897067E+01 0.30046396552E+01
 0.33021947231E+01 0.34852633083E+01 0.35417157897E+01 0.35001346887E+01 0.34061527419E+01
 0.33029252641E+01 0.32262305020E+01 0.31982322446E+01 0.32262308167E+01 0.33029255612E+01
 0.34061525755E+01 0.35001337826E+01 0.35417142567E+01 0.34852615958E+01 0.33021934434E+01
 0.30046391784E+01 0.26463900345E+01 0.23065038688E+01 0.20643201435E+01 0.19767671120E+01
 0.20643195693E+01 0.23065031319E+01 0.31300988690E+01 0.33529350501E+01 0.34962929817E+01
 0.35405038048E+01 0.35001346887E+01 0.34080956073E+01 0.33003130820E+01 0.32096476444E+01
 0.31588385066E+01 0.31588407011E+01 0.32096510873E+01 0.33003130771E+01 0.34080944264E+01
 0.35001405760E+01 0.35405163715E+01 0.34962947319E+01 0.33529092160E+01 0.31300544607E+01
 0.28778125988E+01 0.26603031903E+01 0.25348847882E+01 0.25348849013E+01 0.26603144823E+01
 0.28778473534E+01 0.34125581274E+01 0.35088199941E+01 0.35343041458E+01 0.34933472115E+01
 0.34061527419E+01 0.33003130820E+01 0.32038902574E+01 0.31380892343E+01 0.31149151399E+01
 0.31380895674E+01 0.32038908632E+01 0.33003138198E+01 0.34061534308E+01 0.34933476116E+01
 0.35343040938E+01 0.35088193933E+01 0.34125570563E+01 0.32668412101E+01 0.31126370341E+01
 0.29961421016E+01 0.29528966981E+01 0.29961427690E+01 0.31126381628E+01 0.32668424705E+01
 0.35074431664E+01 0.35164146100E+01 0.34771904085E+01 0.33995343182E+01 0.33029252641E+01
 0.32096476444E+01 0.31380892343E+01 0.30997640468E+01 0.30997612201E+01 0.31380871530E+01
 0.32096507379E+01 0.33029229299E+01 0.33995214279E+01 0.34771863074E+01 0.35164403217E+01
 0.35074879533E+01 0.34527727470E+01 0.33709268247E+01 0.32913029337E+01 0.32427162582E+01
 0.32427264475E+01 0.32913217019E+01 0.33709282760E+01 0.34527424374E+01 0.34792229792E+01
 0.34475200477E+01 0.33860148253E+01 0.33068772346E+01 0.32262305020E+01 0.31588385066E+01
 0.31149151399E+01 0.30997612201E+01 0.31149146066E+01 0.31588377867E+01 0.32262300981E+01
 0.33068775159E+01 0.33860158328E+01 0.34475214899E+01 0.34792243379E+01 0.34777753626E+01
 0.34498151383E+01 0.34095627911E+01 0.33752517099E+01 0.33618957392E+01 0.33752518802E+01
 0.34095628806E+01 0.34498148048E+01 0.34777744590E+01 0.34005992007E+01 0.33628731708E+01
 0.33097306071E+01 0.32512995696E+01 0.31982322446E+01 0.31588407011E+01 0.31380895674E+01
 0.31380871530E+01 0.31588377867E+01 0.31982362295E+01 0.32513089803E+01 0.33097307927E+01
 0.33628505492E+01 0.34005608361E+01 0.34169175484E+01 0.34125796238E+01 0.33946250983E+01
 0.33737563677E+01 0.33602116868E+01 0.33602028696E+01 0.33737343521E+01 0.33946047915E+01
 0.34125808794E+01 0.34169463959E+01 0.33279085626E+01 0.33082399118E+01 0.32806235693E+01
 0.32513100431E+01 0.32262308167E+01 0.32096510873E+01 0.32038908632E+01 0.32096507379E+01
 0.32262300981E+01 0.32513089803E+01 0.32806223127E+01 0.33082387682E+01 0.33279078868E+01
 0.33351750585E+01 0.33292500479E+01 0.33135527080E+01 0.32945542242E+01 0.32794586692E+01
 0.32737496823E+01 0.32794577929E+01 0.32945528101E+01 0.33135513057E+01 0.33292491669E+01
 0.33351749778E+01 0.32992408046E+01 0.33082153086E+01 0.33097307537E+01 0.33068857287E+01
 0.33029255612E+01 0.33003130771E+01 0.33003138198E+01 0.33029229299E+01 0.33068775159E+01
 0.33097307927E+01 0.33082387682E+01 0.32992796542E+01 0.32811379022E+01 0.32545719976E+01
 0.32230508615E+01 0.31919630342E+01 0.31671544846E+01 0.31534200221E+01 0.31534207295E+01
 0.31671612968E+01 0.31919810656E+01 0.32230710308E+01 0.32545735051E+01 0.32811108995E+01
 0.33279087273E+01 0.33628504403E+01 0.33860148960E+01 0.33995201888E+01 0.34061525755E+01
 0.34080944264E+01 0.34061534308E+01 0.33995214279E+01 0.33860158328E+01 0.33628505492E+01
 0.33279078868E+01 0.32811379022E+01 0.32254134915E+01 0.31663101573E+01 0.31108583127E+01
 0.30658945930E+01 0.30367586470E+01 0.30266911952E+01 0.30367584334E+01 0.30658944583E+01
 0.31108586384E+01 0.31663111463E+01 0.32254149585E+01 0.32811393459E+01 0.34005994352E+01
 0.34475485145E+01 0.34771901397E+01 0.34933367524E+01 0.35001337826E+01 0.35001405760E+01
 0.34933476116E+01 0.34771863074E+01 0.34475214899E+01 0.34005608361E+01 0.33351750585E+01
 0.32545719976E+01 0.31663101573E+01 0.30805148503E+01 0.30072504238E+01 0.29544066450E+01
 0.29268882951E+01 0.29268915853E+01 0.29544097109E+01 0.30072414888E+01 0.30804930935E+01
 0.31662906457E+01 0.32545735051E+01 0.33352025043E+01 0.34792231828E+01 0.35164393987E+01
 0.35343034935E+01 0.35405160882E+01 0.35417142567E+01 0.35405163715E+01 0.35343040938E+01
 0.35164403217E+01 0.34792243379E+01 0.34169175484E+01 0.33292500479E+01 0.32230508615E+01
 0.31108583127E+01 0.30072504238E+01 0.29249488977E+01 0.28726063405E+01 0.28547201669E+01
 0.28726069334E+01 0.29249498126E+01 0.30072512409E+01 0.31108586494E+01 0.32230505578E+01
 0.33292491669E+01 0.34169163626E+01 0.35074433362E+01 0.35087903223E+01 0.34962922298E+01
 0.34852658296E+01 0.34852615958E+01 0.34962947319E+01 0.35088193933E+01 0.35074879533E+01
 0.34777753626E+01 0.34125796238E+01 0.33135527080E+01 0.31919630342E+01 0.30658945930E+01
 0.29544066450E+01 0.28726063405E+01 0.28297079813E+01 0.28297063693E+01 0.28726044839E+01
 0.29544096080E+01 0.30659051321E+01 0.31919811482E+01 0.33135712043E+01 0.34125808794E+01
 0.34777466225E+01 0.34125584308E+01 0.33529107379E+01 0.33021944350E+01 0.32825353780E+01
 0.33021934434E+01 0.33529092160E+01 0.34125570563E+01 0.34527727470E+01 0.34498151383E+01
 0.33946250983E+01 0.32945542242E+01 0.31671544846E+01 0.30367586470E+01 0.29268882951E+01
 0.28547201669E+01 0.28297063693E+01 0.28547202963E+01 0.29268883201E+01 0.30367582771E+01
 0.31671536049E+01 0.32945530375E+01 0.33946241037E+01 0.34498148048E+01 0.34527733727E+01
 0.31300995578E+01 0.30046791937E+01 0.29304115671E+01 0.29303957432E+01 0.30046391784E+01
 0.31300544607E+01 0.32668412101E+01 0.33709268247E+01 0.34095627911E+01 0.33737563677E+01
 0.32794586692E+01 0.31534200221E+01 0.30266911952E+01 0.29268915853E+01 0.28726069334E+01
 0.28726044839E+01 0.29268883201E+01 0.30266921059E+01 0.31534206047E+01 0.32794487600E+01
 0.33737347284E+01 0.34095434599E+01 0.33709282760E+01 0.32668700242E+01 0.26463909974E+01
 0.24786188333E+01 0.24175576204E+01 0.24786182934E+01 0.26463900345E+01 0.28778125988E+01
 0.31126370341E+01 0.32913029337E+01 0.33752517099E+01 0.33602116868E+01 0.32737496823E+01
 0.31534207295E+01 0.30367584334E+01 0.29544097109E+01 0.29249498126E+01 0.29544096080E+01
 0.30367582771E+01 0.31534206047E+01 0.32737497110E+01 0.33602119662E+01 0.33752523182E+01
 0.32913038568E+01 0.31126381628E+01 0.28778137657E+01 0.20150261552E+01 0.18515049654E+01
 0.18515421502E+01 0.20150930624E+01 0.23065038688E+01 0.26603031903E+01 0.29961421016E+01
 0.32427162582E+01 0.33618957392E+01 0.33602028696E+01 0.32794577929E+01 0.31671612968E+01
 0.30658944583E+01 0.30072414888E+01 0.30072512409E+01 0.30659051321E+01 0.31671536049E+01
 0.32794487600E+01 0.33602119662E+01 0.33619113931E+01 0.32427267637E+01 0.29961572140E+01