   1   1   1   0
  0.1660753E+02  0.2863783E-09  0.2863783E-09  0.2863783E-09  0.5000000E-15
  1.000000000000000E-004
  CAR 
 Al                                      
     25.70008461     -5.17953851  301      7.12708210      1.00000000
     -5.180  0.0000E+00  0.0000E+00
     -5.077  0.0000E+00  0.0000E+00
     -4.974  0.0000E+00  0.0000E+00
     -4.871 -0.8192E-31 -0.8432E-32
     -4.768 -0.3979E-27 -0.4097E-28
     -4.665 -0.1038E-23 -0.1069E-24
     -4.562 -0.1589E-20 -0.1637E-21
     -4.459 -0.1428E-17 -0.1471E-18
     -4.356 -0.7254E-15 -0.7481E-16
     -4.253 -0.2244E-12 -0.2317E-13
     -4.150 -0.4022E-10 -0.4163E-11
     -4.047 -0.4199E-08 -0.4363E-09
     -3.944 -0.2542E-06 -0.2660E-07
     -3.841 -0.8860E-05 -0.9386E-06
     -3.738 -0.1755E-03 -0.1900E-04
     -3.636 -0.1924E-02 -0.2171E-03
     -3.533 -0.1095E-01 -0.1344E-02
     -3.430 -0.2544E-01 -0.3963E-02
     -3.327  0.2298E-01 -0.1598E-02
     -3.224  0.2432E+00  0.2344E-01
     -3.121  0.5197E+00  0.7693E-01
     -3.018  0.5709E+00  0.1357E+00
     -2.915  0.4240E+00  0.1793E+00
     -2.812  0.2983E+00  0.2100E+00
     -2.709  0.2461E+00  0.2354E+00
     -2.606  0.2223E+00  0.2583E+00
     -2.503  0.2048E+00  0.2793E+00
     -2.400  0.1903E+00  0.2989E+00
     -2.297  0.1784E+00  0.3173E+00
     -2.195  0.1685E+00  0.3346E+00
     -2.092  0.1600E+00  0.3511E+00
     -1.989  0.1527E+00  0.3668E+00
     -1.886  0.1463E+00  0.3819E+00
     -1.783  0.1406E+00  0.3963E+00
     -1.680  0.1357E+00  0.4103E+00
     -1.577  0.1310E+00  0.4238E+00
     -1.474  0.1272E+00  0.4369E+00
     -1.371  0.1231E+00  0.4496E+00
     -1.268  0.1204E+00  0.4620E+00
     -1.165  0.1164E+00  0.4739E+00
     -1.062  0.1142E+00  0.4857E+00
     -0.959  0.1114E+00  0.4972E+00
     -0.856  0.1080E+00  0.5083E+00
     -0.753  0.1079E+00  0.5194E+00
     -0.651  0.1027E+00  0.5299E+00
     -0.548  0.1031E+00  0.5406E+00
     -0.445  0.1010E+00  0.5510E+00
     -0.342  0.9634E-01  0.5609E+00
     -0.239  0.9914E-01  0.5711E+00
     -0.136  0.9450E-01  0.5808E+00
     -0.033  0.9171E-01  0.5902E+00
      0.070  0.9528E-01  0.6001E+00
      0.173  0.8920E-01  0.6092E+00
      0.276  0.8785E-01  0.6183E+00
      0.379  0.9107E-01  0.6277E+00
      0.482  0.8623E-01  0.6365E+00
      0.585  0.8317E-01  0.6451E+00
      0.688  0.8699E-01  0.6540E+00
      0.791  0.8552E-01  0.6628E+00
      0.893  0.7761E-01  0.6708E+00
      0.996  0.8307E-01  0.6794E+00
      1.099  0.8585E-01  0.6882E+00
      1.202  0.7347E-01  0.6958E+00
      1.305  0.7780E-01  0.7038E+00
      1.408  0.8520E-01  0.7126E+00
      1.511  0.7337E-01  0.7201E+00
      1.614  0.7188E-01  0.7275E+00
      1.717  0.8121E-01  0.7359E+00
      1.820  0.7669E-01  0.7438E+00
      1.923  0.6859E-01  0.7508E+00
      2.026  0.7326E-01  0.7584E+00
      2.129  0.7873E-01  0.7665E+00
      2.232  0.7035E-01  0.7737E+00
      2.335  0.6586E-01  0.7805E+00
      2.437  0.7569E-01  0.7883E+00
      2.540  0.7341E-01  0.7958E+00
      2.643  0.6330E-01  0.8024E+00
      2.746  0.7103E-01  0.8097E+00
      2.849  0.7286E-01  0.8172E+00
      2.952  0.5759E-01  0.8231E+00
      3.055  0.5185E-01  0.8284E+00
      3.158  0.5868E-01  0.8345E+00
      3.261  0.1402E+00  0.8489E+00
      3.364  0.3866E+00  0.8887E+00
      3.467  0.6876E+00  0.9595E+00
      3.570  0.8358E+00  0.1045E+01
      3.673  0.7708E+00  0.1125E+01
      3.776  0.6215E+00  0.1189E+01
      3.878  0.5084E+00  0.1241E+01
      3.981  0.4259E+00  0.1285E+01
      4.084  0.3779E+00  0.1324E+01
      4.187  0.3735E+00  0.1362E+01
      4.290  0.3648E+00  0.1400E+01
      4.393  0.3326E+00  0.1434E+01
      4.496  0.3097E+00  0.1466E+01
      4.599  0.3028E+00  0.1497E+01
      4.702  0.2946E+00  0.1527E+01
      4.805  0.2994E+00  0.1558E+01
      4.908  0.3655E+00  0.1596E+01
      5.011  0.4930E+00  0.1647E+01
      5.114  0.5693E+00  0.1705E+01
      5.217  0.5196E+00  0.1759E+01
      5.320  0.4139E+00  0.1801E+01
      5.422  0.3466E+00  0.1837E+01
      5.525  0.3456E+00  0.1873E+01
      5.628  0.3563E+00  0.1909E+01
      5.731  0.3202E+00  0.1942E+01
      5.834  0.2966E+00  0.1973E+01
      5.937  0.4237E+00  0.2016E+01
      6.040  0.6666E+00  0.2085E+01
      6.143  0.7746E+00  0.2165E+01
      6.246  0.7326E+00  0.2240E+01
      6.349  0.7531E+00  0.2318E+01
      6.452  0.8452E+00  0.2405E+01
      6.555  0.9460E+00  0.2502E+01
      6.658  0.1000E+01  0.2605E+01
      6.761  0.9303E+00  0.2701E+01
      6.864  0.8140E+00  0.2785E+01
      6.966  0.7962E+00  0.2866E+01
      7.069  0.8492E+00  0.2954E+01
      7.172  0.7474E+00  0.3031E+01
      7.275  0.4576E+00  0.3078E+01
      7.378  0.3037E+00  0.3109E+01
      7.481  0.4777E+00  0.3158E+01
      7.584  0.7160E+00  0.3232E+01
      7.687  0.7197E+00  0.3306E+01
      7.790  0.5722E+00  0.3365E+01
      7.893  0.4960E+00  0.3416E+01
      7.996  0.5652E+00  0.3474E+01
      8.099  0.6761E+00  0.3544E+01
      8.202  0.6230E+00  0.3608E+01
      8.305  0.4046E+00  0.3650E+01
      8.407  0.2513E+00  0.3675E+01
      8.510  0.2233E+00  0.3698E+01
      8.613  0.2195E+00  0.3721E+01
      8.716  0.2040E+00  0.3742E+01
      8.819  0.2521E+00  0.3768E+01
      8.922  0.4111E+00  0.3810E+01
      9.025  0.5495E+00  0.3867E+01
      9.128  0.5468E+00  0.3923E+01
      9.231  0.4602E+00  0.3971E+01
      9.334  0.3896E+00  0.4011E+01
      9.437  0.3625E+00  0.4048E+01
      9.540  0.3626E+00  0.4085E+01
      9.643  0.3618E+00  0.4123E+01
      9.746  0.3523E+00  0.4159E+01
      9.849  0.3380E+00  0.4194E+01
      9.951  0.3166E+00  0.4226E+01
     10.054  0.3190E+00  0.4259E+01
     10.157  0.3446E+00  0.4294E+01
     10.260  0.3371E+00  0.4329E+01
     10.363  0.2969E+00  0.4360E+01
     10.466  0.2829E+00  0.4389E+01
     10.569  0.3163E+00  0.4421E+01
     10.672  0.3379E+00  0.4456E+01
     10.775  0.3012E+00  0.4487E+01
     10.878  0.2729E+00  0.4515E+01
     10.981  0.2899E+00  0.4545E+01
     11.084  0.3034E+00  0.4576E+01
     11.187  0.3017E+00  0.4607E+01
     11.290  0.2961E+00  0.4638E+01
     11.393  0.2799E+00  0.4667E+01
     11.495  0.2664E+00  0.4694E+01
     11.598  0.2846E+00  0.4723E+01
     11.701  0.3046E+00  0.4755E+01
     11.804  0.2802E+00  0.4784E+01
     11.907  0.2630E+00  0.4811E+01
     12.010  0.2823E+00  0.4840E+01
     12.113  0.2755E+00  0.4868E+01
     12.216  0.2617E+00  0.4895E+01
     12.319  0.2875E+00  0.4925E+01
     12.422  0.2895E+00  0.4954E+01
     12.525  0.2584E+00  0.4981E+01
     12.628  0.2576E+00  0.5008E+01
     12.731  0.2782E+00  0.5036E+01
     12.834  0.2770E+00  0.5065E+01
     12.937  0.2680E+00  0.5092E+01
     13.039  0.2919E+00  0.5122E+01
     13.142  0.3425E+00  0.5158E+01
     13.245  0.4003E+00  0.5199E+01
     13.348  0.5088E+00  0.5251E+01
     13.451  0.6652E+00  0.5320E+01
     13.554  0.7025E+00  0.5392E+01
     13.657  0.5797E+00  0.5452E+01
     13.760  0.4517E+00  0.5498E+01
     13.863  0.3920E+00  0.5538E+01
     13.966  0.4030E+00  0.5580E+01
     14.069  0.4164E+00  0.5623E+01
     14.172  0.3638E+00  0.5660E+01
     14.275  0.3537E+00  0.5697E+01
     14.378  0.4459E+00  0.5743E+01
     14.480  0.4951E+00  0.5793E+01
     14.583  0.4501E+00  0.5840E+01
     14.686  0.4291E+00  0.5884E+01
     14.789  0.4347E+00  0.5929E+01
     14.892  0.3988E+00  0.5970E+01
     14.995  0.3635E+00  0.6007E+01
     15.098  0.3681E+00  0.6045E+01
     15.201  0.3776E+00  0.6084E+01
     15.304  0.3786E+00  0.6123E+01
     15.407  0.3701E+00  0.6161E+01
     15.510  0.3458E+00  0.6197E+01
     15.613  0.3226E+00  0.6230E+01
     15.716  0.3198E+00  0.6263E+01
     15.819  0.3396E+00  0.6298E+01
     15.922  0.3599E+00  0.6335E+01
     16.024  0.3935E+00  0.6375E+01
     16.127  0.4449E+00  0.6421E+01
     16.230  0.4737E+00  0.6470E+01
     16.333  0.5000E+00  0.6521E+01
     16.436  0.5284E+00  0.6576E+01
     16.539  0.4960E+00  0.6627E+01
     16.642  0.4145E+00  0.6669E+01
     16.745  0.3873E+00  0.6709E+01
     16.848  0.4455E+00  0.6755E+01
     16.951  0.4637E+00  0.6803E+01
     17.054  0.4183E+00  0.6846E+01
     17.157  0.4029E+00  0.6887E+01
     17.260  0.4066E+00  0.6929E+01
     17.363  0.4078E+00  0.6971E+01
     17.466  0.3994E+00  0.7012E+01
     17.568  0.3957E+00  0.7053E+01
     17.671  0.4092E+00  0.7095E+01
     17.774  0.3944E+00  0.7136E+01
     17.877  0.3780E+00  0.7175E+01
     17.980  0.3889E+00  0.7215E+01
     18.083  0.3932E+00  0.7255E+01
     18.186  0.3883E+00  0.7295E+01
     18.289  0.3578E+00  0.7332E+01
     18.392  0.3334E+00  0.7366E+01
     18.495  0.4471E+00  0.7412E+01
     18.598  0.7622E+00  0.7491E+01
     18.701  0.1033E+01  0.7597E+01
     18.804  0.9994E+00  0.7700E+01
     18.907  0.8602E+00  0.7789E+01
     19.009  0.8218E+00  0.7873E+01
     19.112  0.7808E+00  0.7953E+01
     19.215  0.7011E+00  0.8026E+01
     19.318  0.6196E+00  0.8089E+01
     19.421  0.5596E+00  0.8147E+01
     19.524  0.5726E+00  0.8206E+01
     19.627  0.6083E+00  0.8269E+01
     19.730  0.5882E+00  0.8329E+01
     19.833  0.5995E+00  0.8391E+01
     19.936  0.6975E+00  0.8463E+01
     20.039  0.7492E+00  0.8540E+01
     20.142  0.6968E+00  0.8611E+01
     20.245  0.6395E+00  0.8677E+01
     20.348  0.7189E+00  0.8751E+01
     20.451  0.9328E+00  0.8847E+01
     20.553  0.1025E+01  0.8953E+01
     20.656  0.8090E+00  0.9036E+01
     20.759  0.4894E+00  0.9086E+01
     20.862  0.3363E+00  0.9121E+01
     20.965  0.3276E+00  0.9155E+01
     21.068  0.3288E+00  0.9189E+01
     21.171  0.3102E+00  0.9221E+01
     21.274  0.3073E+00  0.9252E+01
     21.377  0.3151E+00  0.9285E+01
     21.480  0.3267E+00  0.9318E+01
     21.583  0.3516E+00  0.9354E+01
     21.686  0.4116E+00  0.9397E+01
     21.789  0.5462E+00  0.9453E+01
     21.892  0.6717E+00  0.9522E+01
     21.995  0.6387E+00  0.9588E+01
     22.097  0.5306E+00  0.9643E+01
     22.200  0.4754E+00  0.9691E+01
     22.303  0.4322E+00  0.9736E+01
     22.406  0.3863E+00  0.9776E+01
     22.509  0.3688E+00  0.9814E+01
     22.612  0.3248E+00  0.9847E+01
     22.715  0.2240E+00  0.9870E+01
     22.818  0.1380E+00  0.9884E+01
     22.921  0.1021E+00  0.9895E+01
     23.024  0.1036E+00  0.9906E+01
     23.127  0.1144E+00  0.9917E+01
     23.230  0.1070E+00  0.9928E+01
     23.333  0.1032E+00  0.9939E+01
     23.436  0.1098E+00  0.9950E+01
     23.539  0.1157E+00  0.9962E+01
     23.641  0.1423E+00  0.9977E+01
     23.744  0.1453E+00  0.9992E+01
     23.847  0.7925E-01  0.1000E+02
     23.950  0.1180E-01  0.1000E+02
     24.053 -0.7141E-02  0.1000E+02
     24.156 -0.3619E-02  0.1000E+02
     24.259 -0.6839E-03  0.1000E+02
     24.362 -0.6559E-04  0.1000E+02
     24.465 -0.3444E-05  0.1000E+02
     24.568 -0.1020E-06  0.1000E+02
     24.671 -0.1731E-08  0.1000E+02
     24.774 -0.1698E-10  0.1000E+02
     24.877 -0.9660E-13  0.1000E+02
     24.980 -0.3371E-15  0.1000E+02
     25.082  0.0000E+00  0.1000E+02
     25.185  0.0000E+00  0.1000E+02
     25.288  0.0000E+00  0.1000E+02
     25.391  0.0000E+00  0.1000E+02
     25.494  0.0000E+00  0.1000E+02
     25.597  0.0000E+00  0.1000E+02
     25.700  0.0000E+00  0.1000E+02
     25.70008461     -5.17953851  301      7.12708210      1.00000000
     -5.180  0.0000E+00  0.0000E+00  0.0000E+00
     -5.077  0.0000E+00  0.0000E+00  0.0000E+00
     -4.974  0.0000E+00  0.0000E+00  0.0000E+00
     -4.871 -0.4847E-31 -0.6141E-35 -0.1701E-38
     -4.768 -0.2354E-27 -0.8373E-31 -0.4995E-34
     -4.665 -0.6139E-24 -0.2402E-27 -0.1503E-30
     -4.562 -0.9400E-21 -0.4067E-24 -0.2676E-27
     -4.459 -0.8445E-18 -0.4067E-21 -0.2827E-24
     -4.356 -0.4290E-15 -0.2375E-18 -0.1766E-21
     -4.253 -0.1327E-12 -0.8118E-16 -0.6415E-19
     -4.150 -0.2378E-10 -0.1663E-13 -0.1415E-16
     -4.047 -0.2482E-08 -0.2010E-11 -0.1861E-14
     -3.944 -0.1503E-06 -0.1431E-09 -0.1459E-12
     -3.841 -0.5237E-05 -0.5989E-08 -0.6831E-11
     -3.738 -0.1037E-03 -0.1466E-06 -0.1909E-09
     -3.636 -0.1136E-02 -0.2079E-05 -0.3181E-08
     -3.533 -0.6461E-02 -0.1667E-04 -0.3140E-07
     -3.430 -0.1499E-01 -0.7081E-04 -0.1797E-06
     -3.327  0.1371E-01 -0.1185E-03 -0.5528E-06
     -3.224  0.1437E+00  0.1862E-03 -0.5702E-06
     -3.121  0.3063E+00  0.1305E-02  0.1973E-05
     -3.018  0.3349E+00  0.3037E-02  0.9832E-05
     -2.915  0.2465E+00  0.4632E-02  0.2375E-04
     -2.812  0.1710E+00  0.5766E-02  0.4241E-04
     -2.709  0.1393E+00  0.6607E-02  0.6439E-04
     -2.606  0.1245E+00  0.7320E-02  0.8895E-04
     -2.503  0.1135E+00  0.7962E-02  0.1158E-03
     -2.400  0.1043E+00  0.8548E-02  0.1449E-03
     -2.297  0.9675E-01  0.9087E-02  0.1760E-03
     -2.195  0.9035E-01  0.9585E-02  0.2089E-03
     -2.092  0.8486E-01  0.1005E-01  0.2434E-03
     -1.989  0.8007E-01  0.1048E-01  0.2795E-03
     -1.886  0.7587E-01  0.1089E-01  0.3169E-03
     -1.783  0.7212E-01  0.1127E-01  0.3558E-03
     -1.680  0.6881E-01  0.1164E-01  0.3959E-03
     -1.577  0.6570E-01  0.1197E-01  0.4369E-03
     -1.474  0.6306E-01  0.1233E-01  0.4799E-03
     -1.371  0.6030E-01  0.1259E-01  0.5215E-03
     -1.268  0.5829E-01  0.1297E-01  0.5694E-03
     -1.165  0.5575E-01  0.1315E-01  0.6093E-03
     -1.062  0.5404E-01  0.1354E-01  0.6621E-03
     -0.959  0.5213E-01  0.1374E-01  0.7040E-03
     -0.856  0.4988E-01  0.1391E-01  0.7503E-03
     -0.753  0.4928E-01  0.1443E-01  0.8118E-03
     -0.651  0.4638E-01  0.1424E-01  0.8370E-03
     -0.548  0.4593E-01  0.1486E-01  0.9130E-03
     -0.445  0.4455E-01  0.1498E-01  0.9536E-03
     -0.342  0.4191E-01  0.1481E-01  0.9830E-03
     -0.239  0.4260E-01  0.1572E-01  0.1084E-02
     -0.136  0.4019E-01  0.1537E-01  0.1092E-02
     -0.033  0.3842E-01  0.1543E-01  0.1141E-02
      0.070  0.3946E-01  0.1643E-01  0.1257E-02
      0.173  0.3653E-01  0.1576E-01  0.1235E-02
      0.276  0.3543E-01  0.1600E-01  0.1305E-02
      0.379  0.3631E-01  0.1695E-01  0.1424E-02
      0.482  0.3397E-01  0.1641E-01  0.1407E-02
      0.585  0.3230E-01  0.1623E-01  0.1445E-02
      0.688  0.3332E-01  0.1737E-01  0.1594E-02
      0.791  0.3239E-01  0.1740E-01  0.1615E-02
      0.893  0.2899E-01  0.1612E-01  0.1551E-02
      0.996  0.3051E-01  0.1769E-01  0.1763E-02
      1.099  0.3122E-01  0.1857E-01  0.1854E-02
      1.202  0.2637E-01  0.1617E-01  0.1665E-02
      1.305  0.2739E-01  0.1755E-01  0.1889E-02
      1.408  0.2967E-01  0.1952E-01  0.2088E-02
      1.511  0.2525E-01  0.1705E-01  0.1862E-02
      1.614  0.2427E-01  0.1706E-01  0.1964E-02
      1.717  0.2701E-01  0.1965E-01  0.2249E-02
      1.820  0.2521E-01  0.1881E-01  0.2169E-02
      1.923  0.2221E-01  0.1704E-01  0.2070E-02
      2.026  0.2323E-01  0.1863E-01  0.2273E-02
      2.129  0.2460E-01  0.2036E-01  0.2475E-02
      2.232  0.2175E-01  0.1832E-01  0.2312E-02
      2.335  0.1991E-01  0.1752E-01  0.2257E-02
      2.437  0.2238E-01  0.2058E-01  0.2627E-02
      2.540  0.2150E-01  0.2011E-01  0.2612E-02
      2.643  0.1816E-01  0.1761E-01  0.2352E-02
      2.746  0.1977E-01  0.2029E-01  0.2686E-02
      2.849  0.2015E-01  0.2091E-01  0.2798E-02
      2.952  0.1661E-01  0.1583E-01  0.2435E-02
      3.055  0.1704E-01  0.1229E-01  0.2626E-02
      3.158  0.1511E-01  0.1793E-01  0.2188E-02
      3.261  0.3181E-02  0.7343E-01  0.1134E-03
      3.364  0.1459E-01  0.1956E+00  0.3043E-02
      3.467  0.1038E+00  0.2724E+00  0.2170E-01
      3.570  0.2293E+00  0.2311E+00  0.4772E-01
      3.673  0.2649E+00  0.1611E+00  0.5572E-01
      3.776  0.2084E+00  0.1344E+00  0.4516E-01
      3.878  0.1507E+00  0.1286E+00  0.3411E-01
      3.981  0.1178E+00  0.1153E+00  0.2789E-01
      4.084  0.1018E+00  0.1045E+00  0.2515E-01
      4.187  0.9685E-01  0.1068E+00  0.2478E-01
      4.290  0.9122E-01  0.1073E+00  0.2416E-01
      4.393  0.8200E-01  0.9840E-01  0.2261E-01
      4.496  0.7494E-01  0.9273E-01  0.2143E-01
      4.599  0.7071E-01  0.9301E-01  0.2097E-01
      4.702  0.6799E-01  0.9044E-01  0.2112E-01
      4.805  0.6547E-01  0.9565E-01  0.2116E-01
      4.908  0.5944E-01  0.1416E+00  0.1984E-01
      5.011  0.5254E-01  0.2243E+00  0.1868E-01
      5.114  0.5220E-01  0.2680E+00  0.2039E-01
      5.217  0.5383E-01  0.2352E+00  0.2258E-01
      5.320  0.4819E-01  0.1792E+00  0.2147E-01
      5.422  0.4098E-01  0.1480E+00  0.1974E-01
      5.525  0.4162E-01  0.1453E+00  0.2149E-01
      5.628  0.4418E-01  0.1468E+00  0.2386E-01
      5.731  0.3966E-01  0.1313E+00  0.2226E-01
      5.834  0.3320E-01  0.1250E+00  0.2071E-01
      5.937  0.3122E-01  0.1958E+00  0.2783E-01
      6.040  0.2797E-01  0.3305E+00  0.4092E-01
      6.143  0.2783E-01  0.3875E+00  0.4852E-01
      6.246  0.6258E-01  0.3207E+00  0.5796E-01
      6.349  0.1309E+00  0.2465E+00  0.8023E-01
      6.452  0.1654E+00  0.2465E+00  0.1005E+00
      6.555  0.1431E+00  0.3113E+00  0.1110E+00
      6.658  0.1119E+00  0.3651E+00  0.1147E+00
      6.761  0.9443E-01  0.3497E+00  0.1062E+00
      6.864  0.7891E-01  0.3121E+00  0.9283E-01
      6.966  0.6221E-01  0.3229E+00  0.8961E-01
      7.069  0.5230E-01  0.3602E+00  0.9471E-01
      7.172  0.4448E-01  0.3178E+00  0.8447E-01
      7.275  0.3315E-01  0.1862E+00  0.5408E-01
      7.378  0.6068E-01  0.8584E-01  0.3952E-01
      7.481  0.1706E+00  0.6915E-01  0.6432E-01
      7.584  0.2772E+00  0.8559E-01  0.9640E-01
      7.687  0.2687E+00  0.9336E-01  0.9727E-01
      7.790  0.1933E+00  0.8990E-01  0.7791E-01
      7.893  0.1417E+00  0.9577E-01  0.6935E-01
      7.996  0.1197E+00  0.1310E+00  0.8544E-01
      8.099  0.9628E-01  0.1768E+00  0.1115E+00
      8.202  0.6014E-01  0.1774E+00  0.1077E+00
      8.305  0.2960E-01  0.1261E+00  0.6957E-01
      8.407  0.2035E-01  0.8462E-01  0.4058E-01
      8.510  0.2073E-01  0.7613E-01  0.3525E-01
      8.613  0.1653E-01  0.7570E-01  0.3616E-01
      8.716  0.1127E-01  0.7176E-01  0.3493E-01
      8.819  0.4638E-01  0.7273E-01  0.3620E-01
      8.922  0.1593E+00  0.7505E-01  0.4137E-01
      9.025  0.2605E+00  0.7511E-01  0.4534E-01
      9.128  0.2464E+00  0.8202E-01  0.4752E-01
      9.231  0.1740E+00  0.8736E-01  0.4650E-01
      9.334  0.1265E+00  0.8578E-01  0.4329E-01
      9.437  0.1083E+00  0.8502E-01  0.4217E-01
      9.540  0.1016E+00  0.8837E-01  0.4387E-01
      9.643  0.9622E-01  0.9103E-01  0.4495E-01
      9.746  0.8896E-01  0.9158E-01  0.4473E-01
      9.849  0.8137E-01  0.9067E-01  0.4358E-01
      9.951  0.7663E-01  0.8533E-01  0.4036E-01
     10.054  0.7426E-01  0.8659E-01  0.4182E-01
     10.157  0.7229E-01  0.9746E-01  0.4773E-01
     10.260  0.6999E-01  0.9701E-01  0.4633E-01
     10.363  0.6445E-01  0.8441E-01  0.3945E-01
     10.466  0.5766E-01  0.8215E-01  0.3884E-01
     10.569  0.5893E-01  0.9458E-01  0.4552E-01
     10.672  0.6381E-01  0.1005E+00  0.4842E-01
     10.775  0.5682E-01  0.8984E-01  0.4285E-01
     10.878  0.4774E-01  0.8398E-01  0.3974E-01
     10.981  0.5046E-01  0.8970E-01  0.4219E-01
     11.084  0.5376E-01  0.9324E-01  0.4398E-01
     11.187  0.4895E-01  0.9413E-01  0.4584E-01
     11.290  0.4493E-01  0.9384E-01  0.4599E-01
     11.393  0.4566E-01  0.8884E-01  0.4136E-01
     11.495  0.4327E-01  0.8529E-01  0.3922E-01
     11.598  0.4086E-01  0.9238E-01  0.4469E-01
     11.701  0.4252E-01  0.9892E-01  0.4856E-01
     11.804  0.3985E-01  0.9129E-01  0.4395E-01
     11.907  0.3748E-01  0.8691E-01  0.4055E-01
     12.010  0.3872E-01  0.9420E-01  0.4413E-01
     12.113  0.3397E-01  0.9275E-01  0.4501E-01
     12.216  0.3159E-01  0.8877E-01  0.4279E-01
     12.319  0.3714E-01  0.9712E-01  0.4575E-01
     12.422  0.3532E-01  0.9834E-01  0.4705E-01
     12.525  0.2808E-01  0.9009E-01  0.4302E-01
     12.628  0.2741E-01  0.9114E-01  0.4254E-01
     12.731  0.3000E-01  0.9793E-01  0.4572E-01
     12.834  0.3012E-01  0.9865E-01  0.4449E-01
     12.937  0.2716E-01  0.9761E-01  0.4293E-01
     13.039  0.2433E-01  0.9993E-01  0.5621E-01
     13.142  0.2373E-01  0.9494E-01  0.8950E-01
     13.245  0.2305E-01  0.9716E-01  0.1206E+00
     13.348  0.2194E-01  0.1658E+00  0.1215E+00
     13.451  0.2095E-01  0.2894E+00  0.1016E+00
     13.554  0.1849E-01  0.3365E+00  0.8407E-01
     13.657  0.1699E-01  0.2703E+00  0.7493E-01
     13.760  0.1736E-01  0.1944E+00  0.6997E-01
     13.863  0.1569E-01  0.1602E+00  0.6828E-01
     13.966  0.1525E-01  0.1589E+00  0.7591E-01
     14.069  0.1683E-01  0.1608E+00  0.8038E-01
     14.172  0.1468E-01  0.1434E+00  0.6840E-01
     14.275  0.1267E-01  0.1462E+00  0.6282E-01
     14.378  0.1387E-01  0.1917E+00  0.7527E-01
     14.480  0.1201E-01  0.2192E+00  0.8117E-01
     14.583  0.9098E-02  0.2011E+00  0.7396E-01
     14.686  0.1173E-01  0.1860E+00  0.7335E-01
     14.789  0.1400E-01  0.1828E+00  0.7801E-01
     14.892  0.1005E-01  0.1669E+00  0.7508E-01
     14.995  0.6958E-02  0.1521E+00  0.7068E-01
     15.098  0.8900E-02  0.1519E+00  0.7191E-01
     15.201  0.1140E-01  0.1536E+00  0.7401E-01
     15.304  0.1110E-01  0.1510E+00  0.7753E-01
     15.407  0.8491E-02  0.1447E+00  0.8035E-01
     15.510  0.7112E-02  0.1360E+00  0.7548E-01
     15.613  0.8039E-02  0.1302E+00  0.6758E-01
     15.716  0.7744E-02  0.1279E+00  0.6827E-01
     15.819  0.6137E-02  0.1303E+00  0.7800E-01
     15.922  0.8236E-02  0.1343E+00  0.8495E-01
     16.024  0.1952E-01  0.1309E+00  0.9755E-01
     16.127  0.3630E-01  0.1179E+00  0.1215E+00
     16.230  0.4557E-01  0.1079E+00  0.1370E+00
     16.333  0.4483E-01  0.1192E+00  0.1439E+00
     16.436  0.4121E-01  0.1373E+00  0.1485E+00
     16.539  0.3680E-01  0.1312E+00  0.1389E+00
     16.642  0.3181E-01  0.1083E+00  0.1165E+00
     16.745  0.2873E-01  0.1014E+00  0.1100E+00
     16.848  0.2892E-01  0.1210E+00  0.1271E+00
     16.951  0.2929E-01  0.1289E+00  0.1311E+00
     17.054  0.2691E-01  0.1135E+00  0.1196E+00
     17.157  0.2486E-01  0.1088E+00  0.1162E+00
     17.260  0.2434E-01  0.1145E+00  0.1155E+00
     17.363  0.2310E-01  0.1140E+00  0.1181E+00
     17.466  0.2124E-01  0.1088E+00  0.1189E+00
     17.568  0.2108E-01  0.1104E+00  0.1159E+00
     17.671  0.2141E-01  0.1171E+00  0.1187E+00
     17.774  0.1992E-01  0.1120E+00  0.1157E+00
     17.877  0.1816E-01  0.1052E+00  0.1132E+00
     17.980  0.1701E-01  0.1078E+00  0.1190E+00
     18.083  0.1713E-01  0.1112E+00  0.1196E+00
     18.186  0.1754E-01  0.1130E+00  0.1154E+00
     18.289  0.1584E-01  0.1021E+00  0.1077E+00
     18.392  0.1454E-01  0.8866E-01  0.1047E+00
     18.495  0.1449E-01  0.1341E+00  0.1370E+00
     18.598  0.1401E-01  0.2687E+00  0.2202E+00
     18.701  0.1368E-01  0.3883E+00  0.2882E+00
     18.804  0.1256E-01  0.3813E+00  0.2758E+00
     18.907  0.1137E-01  0.3196E+00  0.2444E+00
     19.009  0.1196E-01  0.3063E+00  0.2318E+00
     19.112  0.1175E-01  0.3236E+00  0.1944E+00
     19.215  0.1043E-01  0.3091E+00  0.1604E+00
     19.318  0.1039E-01  0.2290E+00  0.1757E+00
     19.421  0.9833E-02  0.1399E+00  0.2120E+00
     19.524  0.9301E-02  0.1206E+00  0.2365E+00
     19.627  0.1067E-01  0.1475E+00  0.2359E+00
     19.730  0.1005E-01  0.1564E+00  0.2177E+00
     19.833  0.6562E-02  0.1476E+00  0.2328E+00
     19.936  0.5831E-02  0.1526E+00  0.2854E+00
     20.039  0.7777E-02  0.1628E+00  0.3074E+00
     20.142  0.8110E-02  0.1566E+00  0.2836E+00
     20.245  0.8013E-02  0.1423E+00  0.2623E+00
     20.348  0.8979E-02  0.1407E+00  0.3162E+00
     20.451  0.8732E-02  0.1416E+00  0.4597E+00
     20.553  0.7830E-02  0.1236E+00  0.5405E+00
     20.656  0.7619E-02  0.1018E+00  0.4165E+00
     20.759  0.6970E-02  0.9609E-01  0.2110E+00
     20.862  0.6364E-02  0.1001E+00  0.1089E+00
     20.965  0.7132E-02  0.1034E+00  0.9952E-01
     21.068  0.7187E-02  0.1007E+00  0.1026E+00
     21.171  0.5600E-02  0.9669E-01  0.9724E-01
     21.274  0.5368E-02  0.9925E-01  0.9433E-01
     21.377  0.6770E-02  0.1068E+00  0.9227E-01
     21.480  0.7356E-02  0.1205E+00  0.8953E-01
     21.583  0.7539E-02  0.1426E+00  0.8803E-01
     21.686  0.8151E-02  0.1886E+00  0.8637E-01
     21.789  0.7123E-02  0.2927E+00  0.8553E-01
     21.892  0.3608E-02  0.3983E+00  0.8294E-01
     21.995  0.9869E-03  0.3846E+00  0.7929E-01
     22.097  0.3976E-02  0.2873E+00  0.8552E-01
     22.200  0.1358E-01  0.2008E+00  0.9663E-01
     22.303  0.2217E-01  0.1305E+00  0.9933E-01
     22.406  0.2207E-01  0.9040E-01  0.9581E-01
     22.509  0.1673E-01  0.9195E-01  0.9092E-01
     22.612  0.1094E-01  0.9341E-01  0.7615E-01
     22.715  0.5002E-02  0.6649E-01  0.5557E-01
     22.818  0.8353E-03  0.3597E-01  0.4324E-01
     22.921 -0.3103E-03  0.2310E-01  0.3713E-01
     23.024 -0.1154E-03  0.2285E-01  0.3775E-01
     23.127  0.6035E-04  0.2468E-01  0.4168E-01
     23.230  0.8880E-04  0.2282E-01  0.3911E-01
     23.333  0.8698E-04  0.2102E-01  0.3853E-01
     23.436  0.9359E-04  0.2065E-01  0.4225E-01
     23.539  0.1196E-03  0.2013E-01  0.4575E-01
     23.641  0.1329E-03  0.2314E-01  0.5746E-01
     23.744  0.8413E-04  0.2285E-01  0.5926E-01
     23.847  0.1862E-04  0.1219E-01  0.3252E-01
     23.950 -0.5594E-05  0.1716E-02  0.4914E-02
     24.053 -0.3959E-05 -0.1132E-02 -0.2905E-02
     24.156 -0.8853E-06 -0.5593E-03 -0.1483E-02
     24.259 -0.1003E-06 -0.1048E-03 -0.2809E-03
     24.362 -0.6372E-08 -0.9998E-05 -0.2697E-04
     24.465 -0.2356E-09 -0.5232E-06 -0.1417E-05
     24.568 -0.5161E-11 -0.1546E-07 -0.4202E-07
     24.671 -0.6751E-13 -0.2620E-09 -0.7134E-09
     24.774 -0.5291E-15 -0.2565E-11 -0.6996E-11
     24.877 -0.2516E-17 -0.1459E-13 -0.3982E-13
     24.980 -0.3117E-20 -0.5071E-16 -0.1391E-15
     25.082  0.0000E+00  0.0000E+00  0.0000E+00
     25.185  0.0000E+00  0.0000E+00  0.0000E+00
     25.288  0.0000E+00  0.0000E+00  0.0000E+00
     25.391  0.0000E+00  0.0000E+00  0.0000E+00
     25.494  0.0000E+00  0.0000E+00  0.0000E+00
     25.597  0.0000E+00  0.0000E+00  0.0000E+00
     25.700  0.0000E+00  0.0000E+00  0.0000E+00
