    1    1    1    1
  0.1660753E+02  0.2863782E-09  0.2863782E-09  0.2863782E-09  0.5000000E-15
  1.000000000000000E-004
  CAR 
 Al                                      
    3  320    5
 
  0.5000000E+00  0.5000000E+00  0.5000000E+00  0.3125000E-02
   1        3.350655
   2        3.526294
   3       19.191249
   4       19.191252
   5       19.386091
 
  0.4967949E+00  0.5064103E+00  0.4967949E+00  0.3125000E-02
   1        3.352715
   2        3.528470
   3       19.046194
   4       19.067614
   5       19.486105
 
  0.4935897E+00  0.5128205E+00  0.4935897E+00  0.3125000E-02
   1        3.358894
   2        3.534997
   3       18.799884
   4       18.883607
   5       19.599547
 
  0.4903846E+00  0.5192308E+00  0.4903846E+00  0.3125000E-02
   1        3.369193
   2        3.545873
   3       18.517524
   4       18.696576
   5       19.667919
 
  0.4871795E+00  0.5256410E+00  0.4871795E+00  0.3125000E-02
   1        3.383612
   2        3.561096
   3       18.211428
   4       18.511564
   5       19.689670
 
  0.4839744E+00  0.5320513E+00  0.4839744E+00  0.3125000E-02
   1        3.402149
   2        3.580660
   3       17.888591
   4       18.329681
   5       19.671021
 
  0.4807692E+00  0.5384615E+00  0.4807692E+00  0.3125000E-02
   1        3.424805
   2        3.604560
   3       17.553934
   4       18.151309
   5       19.619323
 
  0.4775641E+00  0.5448718E+00  0.4775641E+00  0.3125000E-02
   1        3.451579
   2        3.632788
   3       17.211052
   4       17.976614
   5       19.542508
 
  0.4743590E+00  0.5512821E+00  0.4743590E+00  0.3125000E-02
   1        3.482470
   2        3.664497
   3       16.862102
   4       17.805336
   5       19.445132
 
  0.4711538E+00  0.5576923E+00  0.4711538E+00  0.3125000E-02
   1        3.517476
   2        3.701356
   3       16.510066
   4       17.638209
   5       19.335934
 
  0.4679487E+00  0.5641026E+00  0.4679487E+00  0.3125000E-02
   1        3.556601
   2        3.742559
   3       16.158989
   4       17.474913
   5       19.218205
 
  0.4647436E+00  0.5705128E+00  0.4647436E+00  0.3125000E-02
   1        3.599829
   2        3.787557
   3       15.803507
   4       17.315463
   5       19.091969
 
  0.4615385E+00  0.5769231E+00  0.4615385E+00  0.3125000E-02
   1        3.647170
   2        3.837264
   3       15.448213
   4       17.159870
   5       18.961909
 
  0.4583333E+00  0.5833333E+00  0.4583333E+00  0.3125000E-02
   1        3.698617
   2        3.891225
   3       15.093582
   4       17.008138
   5       18.829149
 
  0.4551282E+00  0.5897436E+00  0.4551282E+00  0.3125000E-02
   1        3.754253
   2        3.949548
   3       14.740199
   4       16.860273
   5       18.695024
 
  0.4519231E+00  0.5961538E+00  0.4519231E+00  0.3125000E-02
   1        3.813911
   2        4.011952
   3       14.388450
   4       16.716275
   5       18.560454
 
  0.4487179E+00  0.6025641E+00  0.4487179E+00  0.3125000E-02
   1        3.877662
   2        4.078541
   3       14.038736
   4       16.576146
   5       18.426257
 
  0.4455128E+00  0.6089744E+00  0.4455128E+00  0.3125000E-02
   1        3.945503
   2        4.149289
   3       13.691355
   4       16.439886
   5       18.293051
 
  0.4423077E+00  0.6153846E+00  0.4423077E+00  0.3125000E-02
   1        4.017426
   2        4.224163
   3       13.346576
   4       16.307493
   5       18.161331
 
  0.4391026E+00  0.6217949E+00  0.4391026E+00  0.3125000E-02
   1        4.093436
   2        4.303267
   3       13.004657
   4       16.181947
   5       18.034093
 
  0.4358974E+00  0.6282051E+00  0.4358974E+00  0.3125000E-02
   1        4.173497
   2        4.386279
   3       12.665740
   4       16.057081
   5       17.906428
 
  0.4326923E+00  0.6346154E+00  0.4326923E+00  0.3125000E-02
   1        4.257472
   2        4.473236
   3       12.330040
   4       15.935744
   5       17.780449
 
  0.4294872E+00  0.6410256E+00  0.4294872E+00  0.3125000E-02
   1        4.345595
   2        4.564190
   3       11.997743
   4       15.818634
   5       17.657948
 
  0.4262821E+00  0.6474359E+00  0.4262821E+00  0.3125000E-02
   1        4.437727
   2        4.659022
   3       11.669017
   4       15.705390
   5       17.538345
 
  0.4230769E+00  0.6538462E+00  0.4230769E+00  0.3125000E-02
   1        4.533838
   2        4.757654
   3       11.344042
   4       15.596011
   5       17.421802
 
  0.4198718E+00  0.6602564E+00  0.4198718E+00  0.3125000E-02
   1        4.633892
   2        4.859991
   3       11.023004
   4       15.490494
   5       17.308453
 
  0.4166667E+00  0.6666667E+00  0.4166667E+00  0.3125000E-02
   1        4.738167
   2        4.966086
   3       10.707528
   4       15.389135
   5       17.199206
 
  0.4134615E+00  0.6730769E+00  0.4134615E+00  0.3125000E-02
   1        4.845818
   2        5.075437
   3       10.394867
   4       15.291277
   5       17.092533
 
  0.4102564E+00  0.6794872E+00  0.4102564E+00  0.3125000E-02
   1        4.957303
   2        5.188070
   3       10.087053
   4       15.197294
   5       16.989385
 
  0.4070513E+00  0.6858974E+00  0.4070513E+00  0.3125000E-02
   1        5.072357
   2        5.303042
   3        9.784325
   4       15.106947
   5       16.889271
 
  0.4038462E+00  0.6923077E+00  0.4038462E+00  0.3125000E-02
   1        5.190756
   2        5.421464
   3        9.487337
   4       15.020664
   5       16.793328
 
  0.4006410E+00  0.6987179E+00  0.4006410E+00  0.3125000E-02
   1        5.311903
   2        5.542219
   3        9.195697
   4       14.938229
   5       16.699367
 
  0.3974359E+00  0.7051282E+00  0.3974359E+00  0.3125000E-02
   1        5.435908
   2        5.664862
   3        8.912687
   4       14.860742
   5       16.610814
 
  0.3942308E+00  0.7115385E+00  0.3942308E+00  0.3125000E-02
   1        5.561117
   2        5.788757
   3        8.638783
   4       14.785915
   5       16.526031
 
  0.3910256E+00  0.7179487E+00  0.3910256E+00  0.3125000E-02
   1        5.685876
   2        5.913236
   3        8.376536
   4       14.714933
   5       16.445051
 
  0.3878205E+00  0.7243590E+00  0.3878205E+00  0.3125000E-02
   1        5.806581
   2        6.037814
   3        8.130039
   4       14.647794
   5       16.367900
 
  0.3846154E+00  0.7307692E+00  0.3846154E+00  0.3125000E-02
   1        5.916149
   2        6.162857
   3        7.906006
   4       14.584496
   5       16.294599
 
  0.3814103E+00  0.7371795E+00  0.3814103E+00  0.3125000E-02
   1        6.001633
   2        6.290506
   3        7.715247
   4       14.525037
   5       16.225162
 
  0.3782051E+00  0.7435897E+00  0.3782051E+00  0.3125000E-02
   1        6.044002
   2        6.424296
   3        7.573254
   4       14.469414
   5       16.159600
 
  0.3750000E+00  0.7500000E+00  0.3750000E+00  0.3125000E-02
   1        6.024940
   2        6.566638
   3        7.495921
   4       14.417627
   5       16.097914
 
  0.3750000E+00  0.7500000E+00  0.3750000E+00  0.3125000E-02
   1        6.024940
   2        6.566638
   3        7.495921
   4       14.417627
   5       16.097914
 
  0.3717949E+00  0.7500000E+00  0.3782051E+00  0.3125000E-02
   1        6.025622
   2        6.567279
   3        7.496599
   4       14.392804
   5       16.123862
 
  0.3685897E+00  0.7500000E+00  0.3814103E+00  0.3125000E-02
   1        6.027667
   2        6.569201
   3        7.498635
   4       14.322460
   5       16.197583
 
  0.3653846E+00  0.7500000E+00  0.3846154E+00  0.3125000E-02
   1        6.031077
   2        6.572404
   3        7.502025
   4       14.216208
   5       16.309461
 
  0.3621795E+00  0.7500000E+00  0.3878205E+00  0.3125000E-02
   1        6.036073
   2        6.577087
   3        7.506866
   4       14.084346
   5       16.450055
 
  0.3589744E+00  0.7500000E+00  0.3910256E+00  0.3125000E-02
   1        6.042204
   2        6.582847
   3        7.512958
   4       13.934937
   5       16.609611
 
  0.3557692E+00  0.7500000E+00  0.3942308E+00  0.3125000E-02
   1        6.049700
   2        6.589877
   3        7.520395
   4       13.773832
   5       16.783114
 
  0.3525641E+00  0.7500000E+00  0.3974359E+00  0.3125000E-02
   1        6.058559
   2        6.598172
   3        7.529172
   4       13.604912
   5       16.966676
 
  0.3493590E+00  0.7500000E+00  0.4006410E+00  0.3125000E-02
   1        6.068783
   2        6.607726
   3        7.539282
   4       13.430787
   5       17.157694
 
  0.3461538E+00  0.7500000E+00  0.4038462E+00  0.3125000E-02
   1        6.080371
   2        6.618529
   3        7.550717
   4       13.253221
   5       17.354402
 
  0.3429487E+00  0.7500000E+00  0.4070513E+00  0.3125000E-02
   1        6.093323
   2        6.630573
   3        7.563467
   4       13.073438
   5       17.555573
 
  0.3397436E+00  0.7500000E+00  0.4102564E+00  0.3125000E-02
   1        6.107640
   2        6.643847
   3        7.577522
   4       12.892312
   5       17.760340
 
  0.3365385E+00  0.7500000E+00  0.4134615E+00  0.3125000E-02
   1        6.123321
   2        6.658336
   3        7.592868
   4       12.710480
   5       17.968069
 
  0.3333333E+00  0.7500000E+00  0.4166667E+00  0.3125000E-02
   1        6.140367
   2        6.674025
   3        7.609489
   4       12.528422
   5       18.178282
 
  0.3301282E+00  0.7500000E+00  0.4198718E+00  0.3125000E-02
   1        6.158778
   2        6.690896
   3        7.627369
   4       12.346513
   5       18.390610
 
  0.3269231E+00  0.7500000E+00  0.4230769E+00  0.3125000E-02
   1        6.178554
   2        6.708927
   3        7.646484
   4       12.165053
   5       18.604759
 
  0.3237179E+00  0.7500000E+00  0.4262821E+00  0.3125000E-02
   1        6.199696
   2        6.728091
   3        7.666810
   4       11.984293
   5       18.820489
 
  0.3205128E+00  0.7500000E+00  0.4294872E+00  0.3125000E-02
   1        6.222202
   2        6.748359
   3        7.688317
   4       11.804448
   5       19.037595
 
  0.3173077E+00  0.7500000E+00  0.4326923E+00  0.3125000E-02
   1        6.246075
   2        6.769694
   3        7.710969
   4       11.625717
   5       19.255899
 
  0.3141026E+00  0.7500000E+00  0.4358974E+00  0.3125000E-02
   1        6.271034
   2        6.791869
   3        7.734395
   4       11.447861
   5       19.475119
 
  0.3108974E+00  0.7500000E+00  0.4391026E+00  0.3125000E-02
   1        6.297637
   2        6.815203
   3        7.759203
   4       11.271921
   5       19.695349
 
  0.3076923E+00  0.7500000E+00  0.4423077E+00  0.3125000E-02
   1        6.325624
   2        6.839605
   3        7.785215
   4       11.097754
   5       19.916351
 
  0.3044872E+00  0.7500000E+00  0.4455128E+00  0.3125000E-02
   1        6.354964
   2        6.864678
   3        7.811926
   4       10.925368
   5       20.137893
 
  0.3012821E+00  0.7500000E+00  0.4487179E+00  0.3125000E-02
   1        6.385670
   2        6.890491
   3        7.839457
   4       10.755101
   5       20.359864
 
  0.2980769E+00  0.7500000E+00  0.4519231E+00  0.3125000E-02
   1        6.417742
   2        6.916931
   3        7.867691
   4       10.587224
   5       20.582093
 
  0.2948718E+00  0.7500000E+00  0.4551282E+00  0.3125000E-02
   1        6.451182
   2        6.943853
   3        7.896483
   4       10.422060
   5       20.804404
 
  0.2916667E+00  0.7500000E+00  0.4583333E+00  0.3125000E-02
   1        6.485517
   2        6.970764
   3        7.925396
   4       10.259219
   5       21.022286
 
  0.2884615E+00  0.7500000E+00  0.4615385E+00  0.3125000E-02
   1        6.521661
   2        6.998065
   3        7.954949
   4       10.101282
   5       21.244909
 
  0.2852564E+00  0.7500000E+00  0.4647436E+00  0.3125000E-02
   1        6.559171
   2        7.025141
   3        7.984058
   4        9.947033
   5       21.466132
 
  0.2820513E+00  0.7500000E+00  0.4679487E+00  0.3125000E-02
   1        6.598048
   2        7.051625
   3        8.012587
   4        9.797800
   5       21.686443
 
  0.2788462E+00  0.7500000E+00  0.4711538E+00  0.3125000E-02
   1        6.638292
   2        7.077025
   3        8.040011
   4        9.654617
   5       21.905468
 
  0.2756410E+00  0.7500000E+00  0.4743590E+00  0.3125000E-02
   1        6.679904
   2        7.100696
   3        8.065654
   4        9.518820
   5       22.122773
 
  0.2724359E+00  0.7500000E+00  0.4775641E+00  0.3125000E-02
   1        6.722883
   2        7.121786
   3        8.088658
   4        9.392126
   5       22.337824
 
  0.2692308E+00  0.7500000E+00  0.4807692E+00  0.3125000E-02
   1        6.767231
   2        7.139172
   3        8.108002
   4        9.276692
   5       22.549969
 
  0.2660256E+00  0.7500000E+00  0.4839744E+00  0.3125000E-02
   1        6.812946
   2        7.151397
   3        8.122593
   4        9.175076
   5       22.758405
 
  0.2628205E+00  0.7500000E+00  0.4871795E+00  0.3125000E-02
   1        6.860030
   2        7.156611
   3        8.131554
   4        9.090010
   5       22.962153
 
  0.2596154E+00  0.7500000E+00  0.4903846E+00  0.3125000E-02
   1        6.908483
   2        7.152592
   3        8.134727
   4        9.023876
   5       23.159897
 
  0.2564103E+00  0.7500000E+00  0.4935897E+00  0.3125000E-02
   1        6.958305
   2        7.136903
   3        8.133253
   4        8.977976
   5       23.350532
 
  0.2532051E+00  0.7500000E+00  0.4967949E+00  0.3125000E-02
   1        7.009496
   2        7.107261
   3        8.129772
   4        8.951961
   5       23.537751
 
  0.2500000E+00  0.7500000E+00  0.5000000E+00  0.3125000E-02
   1        7.062055
   2        7.062060
   3        8.127827
   4        8.943899
   5       23.696257
 
  0.2500000E+00  0.7500000E+00  0.5000000E+00  0.3125000E-02
   1        7.062055
   2        7.062060
   3        8.127827
   4        8.943899
   5       23.696797
 
  0.2435897E+00  0.7307692E+00  0.4871795E+00  0.3125000E-02
   1        6.835517
   2        7.175389
   3        8.208702
   4        9.002760
   5       23.391846
 
  0.2371795E+00  0.7115385E+00  0.4743590E+00  0.3125000E-02
   1        6.454606
   2        7.302406
   3        8.400877
   4        9.144080
   5       23.093776
 
  0.2307692E+00  0.6923077E+00  0.4615385E+00  0.3125000E-02
   1        6.015877
   2        7.443115
   3        8.630363
   4        9.345275
   5       22.810282
 
  0.2243590E+00  0.6730769E+00  0.4487179E+00  0.3125000E-02
   1        5.559452
   2        7.597846
   3        8.864466
   4        9.600429
   5       22.541961
 
  0.2179487E+00  0.6538462E+00  0.4358974E+00  0.3125000E-02
   1        5.099946
   2        7.765888
   3        9.091506
   4        9.902698
   5       22.285305
 
  0.2115385E+00  0.6346154E+00  0.4230769E+00  0.3125000E-02
   1        4.644738
   2        7.947717
   3        9.315496
   4       10.243456
   5       22.041089
 
  0.2051282E+00  0.6153846E+00  0.4102564E+00  0.3125000E-02
   1        4.197229
   2        8.143279
   3        9.540714
   4       10.614504
   5       21.809850
 
  0.1987179E+00  0.5961538E+00  0.3974359E+00  0.3125000E-02
   1        3.759343
   2        8.352568
   3        9.770845
   4       11.009638
   5       21.591627
 
  0.1923077E+00  0.5769231E+00  0.3846154E+00  0.3125000E-02
   1        3.332247
   2        8.575597
   3       10.008688
   4       11.424903
   5       21.386580
 
  0.1858974E+00  0.5576923E+00  0.3717949E+00  0.3125000E-02
   1        2.916729
   2        8.812362
   3       10.255734
   4       11.857633
   5       21.191348
 
  0.1794872E+00  0.5384615E+00  0.3589744E+00  0.3125000E-02
   1        2.513000
   2        9.062862
   3       10.513085
   4       12.306386
   5       21.012404
 
  0.1730769E+00  0.5192308E+00  0.3461538E+00  0.3125000E-02
   1        2.121661
   2        9.326871
   3       10.780883
   4       12.768604
   5       20.846298
 
  0.1666667E+00  0.5000000E+00  0.3333333E+00  0.3125000E-02
   1        1.743606
   2        9.604836
   3       11.059783
   4       13.245820
   5       20.693639
 
  0.1602564E+00  0.4807692E+00  0.3205128E+00  0.3125000E-02
   1        1.378597
   2        9.896538
   3       11.349659
   4       13.736297
   5       20.554122
 
  0.1538462E+00  0.4615385E+00  0.3076923E+00  0.3125000E-02
   1        1.026836
   2       10.201969
   3       11.650458
   4       14.239506
   5       20.427724
 
  0.1474359E+00  0.4423077E+00  0.2948718E+00  0.3125000E-02
   1        0.688490
   2       10.521107
   3       11.962034
   4       14.754994
   5       20.314413
 
  0.1410256E+00  0.4230769E+00  0.2820513E+00  0.3125000E-02
   1        0.363472
   2       10.853939
   3       12.284140
   4       15.281671
   5       20.214144
 
  0.1346154E+00  0.4038462E+00  0.2692308E+00  0.3125000E-02
   1        0.052361
   2       11.200440
   3       12.616607
   4       15.820352
   5       20.126873
 
  0.1282051E+00  0.3846154E+00  0.2564103E+00  0.3125000E-02
   1       -0.244952
   2       11.560574
   3       12.959105
   4       16.370002
   5       20.052490
 
  0.1217949E+00  0.3653846E+00  0.2435897E+00  0.3125000E-02
   1       -0.528342
   2       11.934292
   3       13.311375
   4       16.930105
   5       19.990947
 
  0.1153846E+00  0.3461538E+00  0.2307692E+00  0.3125000E-02
   1       -0.797760
   2       12.321529
   3       13.672902
   4       17.499960
   5       19.942120
 
  0.1089744E+00  0.3269231E+00  0.2179487E+00  0.3125000E-02
   1       -1.053115
   2       12.722203
   3       14.043318
   4       18.078717
   5       19.905873
 
  0.1025641E+00  0.3076923E+00  0.2051282E+00  0.3125000E-02
   1       -1.294306
   2       13.136207
   3       14.422153
   4       18.665061
   5       19.882040
 
  0.9615385E-01  0.2884615E+00  0.1923077E+00  0.3125000E-02
   1       -1.521253
   2       13.563391
   3       14.808875
   4       19.256763
   5       19.870414
 
  0.8974359E-01  0.2692308E+00  0.1794872E+00  0.3125000E-02
   1       -1.733885
   2       14.003592
   3       15.202932
   4       19.849338
   5       19.870762
 
  0.8333333E-01  0.2500000E+00  0.1666667E+00  0.3125000E-02
   1       -1.932284
   2       14.453319
   3       15.602302
   4       19.880177
   5       20.428387
 
  0.7692308E-01  0.2307692E+00  0.1538462E+00  0.3125000E-02
   1       -2.116116
   2       14.918469
   3       16.008948
   4       19.903110
   5       20.962650
 
  0.7051282E-01  0.2115385E+00  0.1410256E+00  0.3125000E-02
   1       -2.285391
   2       15.396612
   3       16.423312
   4       19.947309
   5       21.338336
 
  0.6410256E-01  0.1923077E+00  0.1282051E+00  0.3125000E-02
   1       -2.440250
   2       15.883720
   3       16.837988
   4       19.990257
   5       21.505975
 
  0.5769231E-01  0.1730769E+00  0.1153846E+00  0.3125000E-02
   1       -2.580420
   2       16.383117
   3       17.257558
   4       20.042949
   5       21.588049
 
  0.5128205E-01  0.1538462E+00  0.1025641E+00  0.3125000E-02
   1       -2.706066
   2       16.890374
   3       17.677499
   4       20.103243
   5       21.645187
 
  0.4487179E-01  0.1346154E+00  0.8974359E-01  0.3125000E-02
   1       -2.816929
   2       17.407579
   3       18.099831
   4       20.169971
   5       21.693412
 
  0.3846154E-01  0.1153846E+00  0.7692308E-01  0.3125000E-02
   1       -2.913076
   2       17.930905
   3       18.521232
   4       20.240798
   5       21.736783
 
  0.3205128E-01  0.9615385E-01  0.6410256E-01  0.3125000E-02
   1       -2.994478
   2       18.456989
   3       18.939244
   4       20.312897
   5       21.775932
 
  0.2564103E-01  0.7692308E-01  0.5128205E-01  0.3125000E-02
   1       -3.061093
   2       18.981075
   3       19.350321
   4       20.383213
   5       21.810334
 
  0.1923077E-01  0.5769231E-01  0.3846154E-01  0.3125000E-02
   1       -3.112886
   2       19.500569
   3       19.751872
   4       20.447237
   5       21.839050
 
  0.1282051E-01  0.3846154E-01  0.2564103E-01  0.3125000E-02
   1       -3.149908
   2       19.978904
   3       20.119652
   4       20.497942
   5       21.863795
 
  0.6410256E-02  0.1923077E-01  0.1282051E-01  0.3125000E-02
   1       -3.172136
   2       20.370443
   3       20.415809
   4       20.530962
   5       21.889294
 
  0.0000000E+00  0.0000000E+00  0.0000000E+00  0.3125000E-02
   1       -3.179539
   2       20.542476
   3       20.542480
   4       20.542481
   5       21.878402
 
  0.0000000E+00  0.0000000E+00  0.0000000E+00  0.3125000E-02
   1       -3.179539
   2       20.542475
   3       20.542480
   4       20.542486
   5       21.878412
 
  0.0000000E+00  0.1282051E-01  0.1282051E-01  0.3125000E-02
   1       -3.173618
   2       20.440248
   3       20.440249
   4       20.492020
   5       21.864531
 
  0.0000000E+00  0.2564103E-01  0.2564103E-01  0.3125000E-02
   1       -3.155836
   2       20.197952
   3       20.197958
   4       20.349640
   5       21.820280
 
  0.0000000E+00  0.3846154E-01  0.3846154E-01  0.3125000E-02
   1       -3.126195
   2       19.897861
   3       19.897872
   4       20.136378
   5       21.749345
 
  0.0000000E+00  0.5128205E-01  0.5128205E-01  0.3125000E-02
   1       -3.084760
   2       19.575899
   3       19.575913
   4       19.874557
   5       21.651591
 
  0.0000000E+00  0.6410256E-01  0.6410256E-01  0.3125000E-02
   1       -3.031426
   2       19.251120
   3       19.251135
   4       19.582779
   5       21.532257
 
  0.0000000E+00  0.7692308E-01  0.7692308E-01  0.3125000E-02
   1       -2.966362
   2       18.922452
   3       18.922467
   4       19.260891
   5       21.393024
 
  0.0000000E+00  0.8974359E-01  0.8974359E-01  0.3125000E-02
   1       -2.889412
   2       18.604800
   3       18.604816
   4       18.943142
   5       21.236990
 
  0.0000000E+00  0.1025641E+00  0.1025641E+00  0.3125000E-02
   1       -2.800670
   2       18.293875
   3       18.293891
   4       18.622570
   5       21.066982
 
  0.0000000E+00  0.1153846E+00  0.1153846E+00  0.3125000E-02
   1       -2.700159
   2       17.990757
   3       17.990775
   4       18.303096
   5       20.885623
 
  0.0000000E+00  0.1282051E+00  0.1282051E+00  0.3125000E-02
   1       -2.587907
   2       17.696133
   3       17.696152
   4       17.987425
   5       20.695130
 
  0.0000000E+00  0.1410256E+00  0.1410256E+00  0.3125000E-02
   1       -2.463764
   2       17.413676
   3       17.413695
   4       17.678228
   5       20.496959
 
  0.0000000E+00  0.1538462E+00  0.1538462E+00  0.3125000E-02
   1       -2.328120
   2       17.136925
   3       17.136945
   4       17.375272
   5       20.290229
 
  0.0000000E+00  0.1666667E+00  0.1666667E+00  0.3125000E-02
   1       -2.180824
   2       16.869702
   3       16.869722
   4       17.080405
   5       20.058804
 
  0.0000000E+00  0.1794872E+00  0.1794872E+00  0.3125000E-02
   1       -2.021915
   2       16.612169
   3       16.612190
   4       16.794375
   5       19.639049
 
  0.0000000E+00  0.1923077E+00  0.1923077E+00  0.3125000E-02
   1       -1.851434
   2       16.364446
   3       16.364467
   4       16.517752
   5       19.015699
 
  0.0000000E+00  0.2051282E+00  0.2051282E+00  0.3125000E-02
   1       -1.669446
   2       16.126621
   3       16.126642
   4       16.250976
   5       18.371654
 
  0.0000000E+00  0.2179487E+00  0.2179487E+00  0.3125000E-02
   1       -1.475977
   2       15.898756
   3       15.898778
   4       15.994390
   5       17.729113
 
  0.0000000E+00  0.2307692E+00  0.2307692E+00  0.3125000E-02
   1       -1.271077
   2       15.680913
   3       15.680935
   4       15.748269
   5       17.091881
 
  0.0000000E+00  0.2435897E+00  0.2435897E+00  0.3125000E-02
   1       -1.054801
   2       15.473132
   3       15.473154
   4       15.512830
   5       16.461326
 
  0.0000000E+00  0.2564103E+00  0.2564103E+00  0.3125000E-02
   1       -0.827035
   2       15.278119
   3       15.278143
   4       15.295029
   5       15.838213
 
  0.0000000E+00  0.2692308E+00  0.2692308E+00  0.3125000E-02
   1       -0.588229
   2       15.077192
   3       15.090175
   4       15.090199
   5       15.219231
 
  0.0000000E+00  0.2820513E+00  0.2820513E+00  0.3125000E-02
   1       -0.338234
   2       14.612688
   3       14.874580
   4       14.912452
   5       14.912477
 
  0.0000000E+00  0.2948718E+00  0.2948718E+00  0.3125000E-02
   1       -0.077141
   2       14.014763
   3       14.683205
   4       14.744890
   5       14.744915
 
  0.0000000E+00  0.3076923E+00  0.3076923E+00  0.3125000E-02
   1        0.194960
   2       13.425710
   3       14.503147
   4       14.587496
   5       14.587520
 
  0.0000000E+00  0.3205128E+00  0.3205128E+00  0.3125000E-02
   1        0.477963
   2       12.845786
   3       14.334477
   4       14.440273
   5       14.440298
 
  0.0000000E+00  0.3333333E+00  0.3333333E+00  0.3125000E-02
   1        0.771732
   2       12.275230
   3       14.177252
   4       14.303226
   5       14.303251
 
  0.0000000E+00  0.3461538E+00  0.3461538E+00  0.3125000E-02
   1        1.076145
   2       11.714278
   3       14.031521
   4       14.176353
   5       14.176378
 
  0.0000000E+00  0.3589744E+00  0.3589744E+00  0.3125000E-02
   1        1.391771
   2       11.166034
   3       13.897327
   4       14.060190
   5       14.060215
 
  0.0000000E+00  0.3717949E+00  0.3717949E+00  0.3125000E-02
   1        1.716948
   2       10.624757
   3       13.774706
   4       13.953581
   5       13.953606
 
  0.0000000E+00  0.3846154E+00  0.3846154E+00  0.3125000E-02
   1        2.052073
   2       10.094003
   3       13.663687
   4       13.857152
   5       13.857177
 
  0.0000000E+00  0.3974359E+00  0.3974359E+00  0.3125000E-02
   1        2.396712
   2        9.574229
   3       13.564296
   4       13.770897
   5       13.770923
 
  0.0000000E+00  0.4102564E+00  0.4102564E+00  0.3125000E-02
   1        2.750258
   2        9.066063
   3       13.476555
   4       13.694808
   5       13.694833
 
  0.0000000E+00  0.4230769E+00  0.4230769E+00  0.3125000E-02
   1        3.111791
   2        8.570521
   3       13.400483
   4       13.628902
   5       13.628928
 
  0.0000000E+00  0.4358974E+00  0.4358974E+00  0.3125000E-02
   1        3.479669
   2        8.089211
   3       13.336094
   4       13.573153
   5       13.573179
 
  0.0000000E+00  0.4487179E+00  0.4487179E+00  0.3125000E-02
   1        3.850808
   2        7.624051
   3       13.283401
   4       13.527558
   5       13.527583
 
  0.0000000E+00  0.4615385E+00  0.4615385E+00  0.3125000E-02
   1        4.219100
   2        7.183563
   3       13.242414
   4       13.492115
   5       13.492141
 
  0.0000000E+00  0.4743590E+00  0.4743590E+00  0.3125000E-02
   1        4.569530
   2        6.781568
   3       13.213139
   4       13.466824
   5       13.466849
 
  0.0000000E+00  0.4871795E+00  0.4871795E+00  0.3125000E-02
   1        4.860860
   2        6.457426
   3       13.194456
   4       13.451570
   5       13.451595
 
  0.0000000E+00  0.5000000E+00  0.5000000E+00  0.3125000E-02
   1        4.988789
   2        6.319183
   3       13.188595
   4       13.446505
   5       13.446530
 
  0.0000000E+00  0.5000000E+00  0.5000000E+00  0.3125000E-02
   1        4.988789
   2        6.319183
   3       13.188595
   4       13.446505
   5       13.446530
 
  0.6410256E-02  0.5064103E+00  0.5000000E+00  0.3125000E-02
   1        4.990149
   2        6.320622
   3       13.068845
   4       13.434746
   5       13.569020
 
  0.1282051E-01  0.5128205E+00  0.5000000E+00  0.3125000E-02
   1        4.994228
   2        6.325173
   3       12.875976
   4       13.400034
   5       13.771123
 
  0.1923077E-01  0.5192308E+00  0.5000000E+00  0.3125000E-02
   1        5.001078
   2        6.333324
   3       12.675059
   4       13.343942
   5       13.986362
 
  0.2564103E-01  0.5256410E+00  0.5000000E+00  0.3125000E-02
   1        5.010611
   2        6.343382
   3       12.473528
   4       13.268634
   5       14.207150
 
  0.3205128E-01  0.5320513E+00  0.5000000E+00  0.3125000E-02
   1        5.022865
   2        6.356311
   3       12.273528
   4       13.176849
   5       14.431911
 
  0.3846154E-01  0.5384615E+00  0.5000000E+00  0.3125000E-02
   1        5.037841
   2        6.372108
   3       12.075668
   4       13.071276
   5       14.660034
 
  0.4487179E-01  0.5448718E+00  0.5000000E+00  0.3125000E-02
   1        5.055540
   2        6.390768
   3       11.880215
   4       12.954434
   5       14.891248
 
  0.5128205E-01  0.5512821E+00  0.5000000E+00  0.3125000E-02
   1        5.075960
   2        6.412286
   3       11.687304
   4       12.828562
   5       15.125417
 
  0.5769231E-01  0.5576923E+00  0.5000000E+00  0.3125000E-02
   1        5.099152
   2        6.437838
   3       11.498087
   4       12.695770
   5       15.362981
 
  0.6410256E-01  0.5641026E+00  0.5000000E+00  0.3125000E-02
   1        5.125023
   2        6.465045
   3       11.310420
   4       12.557322
   5       15.602881
 
  0.7051282E-01  0.5705128E+00  0.5000000E+00  0.3125000E-02
   1        5.153618
   2        6.495087
   3       11.125447
   4       12.414709
   5       15.845570
 
  0.7692308E-01  0.5769231E+00  0.5000000E+00  0.3125000E-02
   1        5.184997
   2        6.527986
   3       10.943186
   4       12.269049
   5       16.091022
 
  0.8333333E-01  0.5833333E+00  0.5000000E+00  0.3125000E-02
   1        5.219051
   2        6.563667
   3       10.763653
   4       12.121205
   5       16.339218
 
  0.8974359E-01  0.5897436E+00  0.5000000E+00  0.3125000E-02
   1        5.255832
   2        6.602148
   3       10.586856
   4       11.971946
   5       16.590135
 
  0.9615385E-01  0.5961538E+00  0.5000000E+00  0.3125000E-02
   1        5.295340
   2        6.643414
   3       10.412802
   4       11.821890
   5       16.843764
 
  0.1025641E+00  0.6025641E+00  0.5000000E+00  0.3125000E-02
   1        5.337575
   2        6.687447
   3       10.241496
   4       11.671548
   5       17.100091
 
  0.1089744E+00  0.6089744E+00  0.5000000E+00  0.3125000E-02