       N       E                     dE             d eps       ncg     rms          rms(c)
DAV:   1    -0.265898967706E+01   -0.26590E+01   -0.53218E+02  4040   0.150E+02
DAV:   2    -0.339687105052E+01   -0.73788E+00   -0.65537E+00  4490   0.170E+01
DAV:   3    -0.340079008436E+01   -0.39190E-02   -0.39045E-02  4525   0.125E+00
DAV:   4    -0.340079404421E+01   -0.39598E-05   -0.39598E-05  4520   0.387E-02
DAV:   5    -0.340079405235E+01   -0.81427E-08   -0.79968E-08  4565   0.137E-03
DAV:   6    -0.340079405198E+01    0.36941E-09   -0.41019E-10  4340   0.863E-05
   1 F= -.34007941E+01 E0= -.34003572E+01  d E =-.131060E-02
