PROCAR new format
# of k-points:  320         # of bands:   5         # of ions:   1

 k-point    1 :    0.50000000 0.50000000 0.50000000     weight = 0.00312500

band   1 # energy    3.35065511 # occ.  2.00000000
 
ion      s      p      d    tot
  1  0.000  0.543  0.000  0.543
 
band   2 # energy    3.52629438 # occ.  2.00000000
 
ion      s      p      d    tot
  1  0.562  0.000  0.113  0.675
 
band   3 # energy   19.19124869 # occ.  0.00000000
 
ion      s      p      d    tot
  1  0.000  0.758  0.000  0.758
 
band   4 # energy   19.19125196 # occ.  0.00000000
 
ion      s      p      d    tot
  1  0.000  0.758  0.000  0.758
 
band   5 # energy   19.38609121 # occ.  0.00000000
 
ion      s      p      d    tot
  1  0.000  0.000  0.602  0.602
 

 k-point    2 :    0.49679487 0.50641026 0.49679487     weight = 0.00312500

band   1 # energy    3.35271490 # occ.  2.00000000
 
ion      s      p      d    tot
  1  0.000  0.542  0.000  0.543
 
band   2 # energy    3.52847034 # occ.  2.00000000
 
ion      s      p      d    tot
  1  0.562  0.000  0.112  0.675
 
band   3 # energy   19.04619367 # occ.  0.00000000
 
ion      s      p      d    tot
  1  0.002  0.542  0.167  0.712
 
band   4 # energy   19.06761411 # occ.  0.00000000
 
ion      s      p      d    tot
  1  0.000  0.551  0.163  0.714
 
band   5 # energy   19.48610451 # occ.  0.00000000
 
ion      s      p      d    tot
  1  0.001  0.211  0.432  0.645
 

 k-point    3 :    0.49358974 0.51282051 0.49358974     weight = 0.00312500

band   1 # energy    3.35889432 # occ.  2.00000000
 
ion      s      p      d    tot
  1  0.000  0.542  0.000  0.543
 
band   2 # energy    3.53499714 # occ.  2.00000000
 
ion      s      p      d    tot
  1  0.562  0.001  0.112  0.675
 
band   3 # energy   18.79988447 # occ.  0.00000000
 
ion      s      p      d    tot
  1  0.006  0.460  0.225  0.690
 
band   4 # energy   18.88360666 # occ.  0.00000000
 
ion      s      p      d    tot
  1  0.000  0.482  0.216  0.698
 
band   5 # energy   19.59954700 # occ.  0.00000000
 
ion      s      p      d    tot
  1  0.005  0.281  0.368  0.654
 

 k-point    4 :    0.49038462 0.51923077 0.49038462     weight = 0.00312500

band   1 # energy    3.36919342 # occ.  2.00000000
 
ion      s      p      d    tot
  1  0.000  0.542  0.001  0.543
 
band   2 # energy    3.54587324 # occ.  2.00000000
 
ion      s      p      d    tot
  1  0.561  0.002  0.112  0.675
 
band   3 # energy   18.51752386 # occ.  0.00000000
 
ion      s      p      d    tot
  1  0.011  0.424  0.243  0.677
 
band   4 # energy   18.69657647 # occ.  0.00000000
 
ion      s      p      d    tot
  1  0.000  0.461  0.231  0.692
 
band   5 # energy   19.66791940 # occ.  0.00000000
 
ion      s      p      d    tot
  1  0.012  0.298  0.340  0.650
 

 k-point    5 :    0.48717949 0.52564103 0.48717949     weight = 0.00312500

band   1 # energy    3.38361193 # occ.  2.00000000
 
ion      s      p      d    tot
  1  0.000  0.541  0.001  0.543
 
band   2 # energy    3.56109555 # occ.  2.00000000
 
ion      s      p      d    tot
  1  0.559  0.004  0.112  0.675
 
band   3 # energy   18.21142797 # occ.  0.00000000
 
ion      s      p      d    tot
  1  0.016  0.402  0.249  0.667
 
band   4 # energy   18.51156353 # occ.  0.00000000
 
ion      s      p      d    tot
  1  0.000  0.453  0.236  0.688
 
band   5 # energy   19.68966982 # occ.  0.00000000
 
ion      s      p      d    tot
  1  0.023  0.295  0.322  0.640
 

 k-point    6 :    0.48397436 0.53205128 0.48397436     weight = 0.00312500

band   1 # energy    3.40214944 # occ.  2.00000000
 
ion      s      p      d    tot
  1  0.000  0.541  0.002  0.543
 
band   2 # energy    3.58065966 # occ.  2.00000000
 
ion      s      p      d    tot
  1  0.558  0.005  0.111  0.675
 
band   3 # energy   17.88859085 # occ.  0.00000000
 
ion      s      p      d    tot
  1  0.022  0.386  0.250  0.658
 
band   4 # energy   18.32968090 # occ.  0.00000000
 
ion      s      p      d    tot
  1  0.000  0.450  0.235  0.686
 
band   5 # energy   19.67102129 # occ.  0.00000000
 
ion      s      p      d    tot
  1  0.034  0.285  0.310  0.629
 

 k-point    7 :    0.48076923 0.53846154 0.48076923     weight = 0.00312500

band   1 # energy    3.42480541 # occ.  2.00000000
 
ion      s      p      d    tot
  1  0.000  0.540  0.003  0.543
 
band   2 # energy    3.60455965 # occ.  2.00000000
 
ion      s      p      d    tot
  1  0.555  0.008  0.111  0.674
 
band   3 # energy   17.55393361 # occ.  0.00000000
 
ion      s      p      d    tot
  1  0.028  0.374  0.249  0.651
 
band   4 # energy   18.15130949 # occ.  0.00000000
 
ion      s      p      d    tot
  1  0.000  0.451  0.233  0.684
 
band   5 # energy   19.61932304 # occ.  0.00000000
 
ion      s      p      d    tot
  1  0.046  0.269  0.303  0.618
 

 k-point    8 :    0.47756410 0.54487179 0.47756410     weight = 0.00312500

band   1 # energy    3.45157915 # occ.  2.00000000
 
ion      s      p      d    tot
  1  0.000  0.539  0.004  0.543
 
band   2 # energy    3.63278833 # occ.  2.00000000
 
ion      s      p      d    tot
  1  0.553  0.011  0.110  0.674
 
band   3 # energy   17.21105171 # occ.  0.00000000
 
ion      s      p      d    tot
  1  0.034  0.365  0.246  0.645
 
band   4 # energy   17.97661437 # occ.  0.00000000
 
ion      s      p      d    tot
  1  0.000  0.454  0.229  0.683
 
band   5 # energy   19.54250751 # occ.  0.00000000
 
ion      s      p      d    tot
  1  0.058  0.253  0.297  0.609
 

 k-point    9 :    0.47435897 0.55128205 0.47435897     weight = 0.00312500

band   1 # energy    3.48246969 # occ.  2.00000000
 
ion      s      p      d    tot
  1  0.000  0.538  0.006  0.544
 
band   2 # energy    3.66449680 # occ.  2.00000000
 
ion      s      p      d    tot
  1  0.550  0.014  0.110  0.674
 
band   3 # energy   16.86210167 # occ.  0.00000000
 
ion      s      p      d    tot
  1  0.040  0.357  0.242  0.639
 
band   4 # energy   17.80533587 # occ.  0.00000000
 
ion      s      p      d    tot
  1  0.000  0.457  0.224  0.681
 
band   5 # energy   19.44513215 # occ.  0.00000000
 
ion      s      p      d    tot
  1  0.070  0.236  0.294  0.600
 

 k-point   10 :    0.47115385 0.55769231 0.47115385     weight = 0.00312500

band   1 # energy    3.51747567 # occ.  2.00000000
 
ion      s      p      d    tot
  1  0.000  0.537  0.007  0.544
 
band   2 # energy    3.70135617 # occ.  2.00000000
 
ion      s      p      d    tot
  1  0.547  0.018  0.109  0.674
 
band   3 # energy   16.51006601 # occ.  0.00000000
 
ion      s      p      d    tot
  1  0.046  0.351  0.238  0.635
 
band   4 # energy   17.63820922 # occ.  0.00000000
 
ion      s      p      d    tot
  1  0.000  0.461  0.219  0.680
 
band   5 # energy   19.33593430 # occ.  0.00000000
 
ion      s      p      d    tot
  1  0.081  0.220  0.292  0.593
 

 k-point   11 :    0.46794872 0.56410256 0.46794872     weight = 0.00312500

band   1 # energy    3.55660098 # occ.  2.00000000
 
ion      s      p      d    tot
  1  0.000  0.536  0.009  0.544
 
band   2 # energy    3.74255950 # occ.  2.00000000
 
ion      s      p      d    tot
  1  0.543  0.022  0.108  0.673
 
band   3 # energy   16.15898861 # occ.  0.00000000
 
ion      s      p      d    tot
  1  0.052  0.346  0.233  0.631
 
band   4 # energy   17.47491307 # occ.  0.00000000
 
ion      s      p      d    tot
  1  0.000  0.466  0.213  0.679
 
band   5 # energy   19.21820537 # occ.  0.00000000
 
ion      s      p      d    tot
  1  0.091  0.205  0.292  0.587
 

 k-point   12 :    0.46474359 0.57051282 0.46474359     weight = 0.00312500

band   1 # energy    3.59982862 # occ.  2.00000000
 
ion      s      p      d    tot
  1  0.000  0.534  0.010  0.544
 
band   2 # energy    3.78755672 # occ.  2.00000000
 
ion      s      p      d    tot
  1  0.539  0.026  0.108  0.673
 
band   3 # energy   15.80350716 # occ.  0.00000000
 
ion      s      p      d    tot
  1  0.058  0.341  0.228  0.628
 
band   4 # energy   17.31546333 # occ.  0.00000000
 
ion      s      p      d    tot
  1  0.000  0.471  0.207  0.678
 
band   5 # energy   19.09196894 # occ.  0.00000000
 
ion      s      p      d    tot
  1  0.101  0.191  0.292  0.583
 

 k-point   13 :    0.46153846 0.57692308 0.46153846     weight = 0.00312500

band   1 # energy    3.64716972 # occ.  2.00000000
 
ion      s      p      d    tot
  1  0.000  0.533  0.012  0.545
 
band   2 # energy    3.83726446 # occ.  2.00000000
 
ion      s      p      d    tot
  1  0.535  0.031  0.107  0.673
 
band   3 # energy   15.44821280 # occ.  0.00000000
 
ion      s      p      d    tot
  1  0.064  0.337  0.224  0.625
 
band   4 # energy   17.15986966 # occ.  0.00000000
 
ion      s      p      d    tot
  1  0.000  0.476  0.201  0.677
 
band   5 # energy   18.96190914 # occ.  0.00000000
 
ion      s      p      d    tot
  1  0.109  0.177  0.293  0.580
 

 k-point   14 :    0.45833333 0.58333333 0.45833333     weight = 0.00312500

band   1 # energy    3.69861709 # occ.  2.00000000
 
ion      s      p      d    tot
  1  0.000  0.531  0.014  0.545
 
band   2 # energy    3.89122483 # occ.  2.00000000
 
ion      s      p      d    tot
  1  0.530  0.037  0.106  0.672
 
band   3 # energy   15.09358185 # occ.  0.00000000
 
ion      s      p      d    tot
  1  0.071  0.334  0.219  0.623
 
band   4 # energy   17.00813828 # occ.  0.00000000
 
ion      s      p      d    tot
  1  0.000  0.481  0.195  0.676
 
band   5 # energy   18.82914925 # occ.  0.00000000
 
ion      s      p      d    tot
  1  0.117  0.165  0.295  0.577
 

 k-point   15 :    0.45512821 0.58974359 0.45512821     weight = 0.00312500

band   1 # energy    3.75425303 # occ.  2.00000000
 
ion      s      p      d    tot
  1  0.000  0.529  0.017  0.546
 
band   2 # energy    3.94954778 # occ.  2.00000000
 
ion      s      p      d    tot
  1  0.524  0.043  0.105  0.672
 
band   3 # energy   14.74019852 # occ.  0.00000000
 
ion      s      p      d    tot
  1  0.077  0.330  0.214  0.621
 
band   4 # energy   16.86027286 # occ.  0.00000000
 
ion      s      p      d    tot
  1  0.000  0.486  0.189  0.675
 
band   5 # energy   18.69502425 # occ.  0.00000000
 
ion      s      p      d    tot
  1  0.125  0.153  0.297  0.575
 

 k-point   16 :    0.45192308 0.59615385 0.45192308     weight = 0.00312500

band   1 # energy    3.81391080 # occ.  2.00000000
 
ion      s      p      d    tot
  1  0.000  0.527  0.019  0.546
 
band   2 # energy    4.01195219 # occ.  2.00000000
 
ion      s      p      d    tot
  1  0.519  0.049  0.104  0.671
 
band   3 # energy   14.38844977 # occ.  0.00000000
 
ion      s      p      d    tot
  1  0.084  0.327  0.209  0.620
 
band   4 # energy   16.71627543 # occ.  0.00000000
 
ion      s      p      d    tot
  1  0.000  0.492  0.182  0.674
 
band   5 # energy   18.56045412 # occ.  0.00000000
 
ion      s      p      d    tot
  1  0.132  0.142  0.299  0.573
 

 k-point   17 :    0.44871795 0.60256410 0.44871795     weight = 0.00312500

band   1 # energy    3.87766220 # occ.  2.00000000
 
ion      s      p      d    tot
  1  0.000  0.525  0.021  0.547
 
band   2 # energy    4.07854150 # occ.  2.00000000
 
ion      s      p      d    tot
  1  0.513  0.056  0.103  0.671
 
band   3 # energy   14.03873569 # occ.  0.00000000
 
ion      s      p      d    tot
  1  0.090  0.324  0.205  0.619
 
band   4 # energy   16.57614636 # occ.  0.00000000
 
ion      s      p      d    tot
  1  0.000  0.497  0.176  0.673
 
band   5 # energy   18.42625725 # occ.  0.00000000
 
ion      s      p      d    tot
  1  0.138  0.132  0.301  0.572
 

 k-point   18 :    0.44551282 0.60897436 0.44551282     weight = 0.00312500

band   1 # energy    3.94550292 # occ.  2.00000000
 
ion      s      p      d    tot
  1  0.000  0.523  0.024  0.547
 
band   2 # energy    4.14928921 # occ.  2.00000000
 
ion      s      p      d    tot
  1  0.506  0.063  0.102  0.670
 
band   3 # energy   13.69135539 # occ.  0.00000000
 
ion      s      p      d    tot
  1  0.097  0.321  0.200  0.618
 
band   4 # energy   16.43988579 # occ.  0.00000000
 
ion      s      p      d    tot
  1  0.000  0.502  0.170  0.672
 
band   5 # energy   18.29305130 # occ.  0.00000000
 
ion      s      p      d    tot
  1  0.145  0.122  0.304  0.571
 

 k-point   19 :    0.44230769 0.61538462 0.44230769     weight = 0.00312500

band   1 # energy    4.01742608 # occ.  2.00000000
 
ion      s      p      d    tot
  1  0.000  0.521  0.027  0.548
 
band   2 # energy    4.22416346 # occ.  2.00000000
 
ion      s      p      d    tot
  1  0.499  0.070  0.100  0.670
 
band   3 # energy   13.34657565 # occ.  0.00000000
 
ion      s      p      d    tot
  1  0.105  0.318  0.195  0.618
 
band   4 # energy   16.30749297 # occ.  0.00000000
 
ion      s      p      d    tot
  1  0.000  0.507  0.163  0.671
 
band   5 # energy   18.16133074 # occ.  0.00000000
 
ion      s      p      d    tot
  1  0.150  0.113  0.307  0.571
 

 k-point   20 :    0.43910256 0.62179487 0.43910256     weight = 0.00312500

band   1 # energy    4.09343572 # occ.  2.00000000
 
ion      s      p      d    tot
  1  0.000  0.518  0.030  0.548
 
band   2 # energy    4.30326709 # occ.  2.00000000
 
ion      s      p      d    tot
  1  0.492  0.078  0.099  0.669
 
band   3 # energy   13.00465693 # occ.  0.00000000
 
ion      s      p      d    tot
  1  0.112  0.315  0.191  0.617
 
band   4 # energy   16.18194745 # occ.  0.00000000
 
ion      s      p      d    tot
  1  0.000  0.513  0.157  0.670
 
band   5 # energy   18.03409292 # occ.  0.00000000
 
ion      s      p      d    tot
  1  0.156  0.105  0.310  0.570
 

 k-point   21 :    0.43589744 0.62820513 0.43589744     weight = 0.00312500

band   1 # energy    4.17349708 # occ.  2.00000000
 
ion      s      p      d    tot
  1  0.000  0.516  0.033  0.549
 
band   2 # energy    4.38627854 # occ.  2.00000000
 
ion      s      p      d    tot
  1  0.484  0.087  0.098  0.668
 
band   3 # energy   12.66574034 # occ.  0.00000000
 
ion      s      p      d    tot
  1  0.120  0.311  0.186  0.617
 
band   4 # energy   16.05708095 # occ.  0.00000000
 
ion      s      p      d    tot
  1  0.000  0.518  0.151  0.669
 
band   5 # energy   17.90642782 # occ.  0.00000000
 
ion      s      p      d    tot
  1  0.161  0.096  0.313  0.570
 

 k-point   22 :    0.43269231 0.63461538 0.43269231     weight = 0.00312500

band   1 # energy    4.25747170 # occ.  2.00000000
 
ion      s      p      d    tot
  1  0.000  0.513  0.036  0.549
 
band   2 # energy    4.47323612 # occ.  2.00000000
 
ion      s      p      d    tot
  1  0.475  0.096  0.097  0.668
 
band   3 # energy   12.33004035 # occ.  0.00000000
 
ion      s      p      d    tot
  1  0.128  0.307  0.181  0.617
 
band   4 # energy   15.93574423 # occ.  0.00000000
 
ion      s      p      d    tot
  1  0.000  0.523  0.145  0.668
 
band   5 # energy   17.78044874 # occ.  0.00000000
 
ion      s      p      d    tot
  1  0.166  0.088  0.316  0.570
 

 k-point   23 :    0.42948718 0.64102564 0.42948718     weight = 0.00312500

band   1 # energy    4.34559479 # occ.  2.00000000
 
ion      s      p      d    tot
  1  0.000  0.511  0.039  0.550
 
band   2 # energy    4.56418979 # occ.  2.00000000
 
ion      s      p      d    tot
  1  0.466  0.105  0.096  0.667
 
band   3 # energy   11.99774276 # occ.  0.00000000
 
ion      s      p      d    tot
  1  0.136  0.303  0.177  0.617
 
band   4 # energy   15.81863393 # occ.  0.00000000
 
ion      s      p      d    tot
  1  0.000  0.528  0.139  0.667
 
band   5 # energy   17.65794755 # occ.  0.00000000
 
ion      s      p      d    tot
  1  0.170  0.081  0.319  0.570
 

 k-point   24 :    0.42628205 0.64743590 0.42628205     weight = 0.00312500

band   1 # energy    4.43772667 # occ.  2.00000000
 
ion      s      p      d    tot
  1  0.000  0.508  0.043  0.551
 
band   2 # energy    4.65902164 # occ.  2.00000000
 
ion      s      p      d    tot
  1  0.457  0.115  0.094  0.666
 
band   3 # energy   11.66901713 # occ.  0.00000000
 
ion      s      p      d    tot
  1  0.145  0.299  0.173  0.617
 
band   4 # energy   15.70539025 # occ.  0.00000000
 
ion      s      p      d    tot
  1  0.000  0.533  0.133  0.666
 
band   5 # energy   17.53834534 # occ.  0.00000000
 
ion      s      p      d    tot
  1  0.175  0.073  0.322  0.570
 

 k-point   25 :    0.42307692 0.65384615 0.42307692     weight = 0.00312500

band   1 # energy    4.53383839 # occ.  2.00000000
 
ion      s      p      d    tot
  1  0.000  0.505  0.046  0.551
 
band   2 # energy    4.75765357 # occ.  2.00000000
 
ion      s      p      d    tot
  1  0.446  0.125  0.093  0.665
 
band   3 # energy   11.34404181 # occ.  0.00000000
 
ion      s      p      d    tot
  1  0.155  0.294  0.168  0.617
 
band   4 # energy   15.59601109 # occ.  0.00000000
 
ion      s      p      d    tot
  1  0.000  0.538  0.127  0.665
 
band   5 # energy   17.42180194 # occ.  0.00000000
 
ion      s      p      d    tot
  1  0.179  0.067  0.326  0.571
 

 k-point   26 :    0.41987179 0.66025641 0.41987179     weight = 0.00312500

band   1 # energy    4.63389160 # occ.  2.00000000
 
ion      s      p      d    tot
  1  0.000  0.502  0.050  0.552
 
band   2 # energy    4.85999092 # occ.  2.00000000
 
ion      s      p      d    tot
  1  0.435  0.137  0.092  0.664
 
band   3 # energy   11.02300450 # occ.  0.00000000
 
ion      s      p      d    tot
  1  0.164  0.289  0.164  0.617
 
band   4 # energy   15.49049417 # occ.  0.00000000
 
ion      s      p      d    tot
  1  0.000  0.542  0.122  0.664
 
band   5 # energy   17.30845269 # occ.  0.00000000
 
ion      s      p      d    tot
  1  0.182  0.060  0.329  0.571
 

 k-point   27 :    0.41666667 0.66666667 0.41666667     weight = 0.00312500

band   1 # energy    4.73816705 # occ.  2.00000000
 
ion      s      p      d    tot
  1  0.000  0.500  0.053  0.553
 
band   2 # energy    4.96608616 # occ.  2.00000000
 
ion      s      p      d    tot
  1  0.423  0.148  0.091  0.662
 
band   3 # energy   10.70752756 # occ.  0.00000000
 
ion      s      p      d    tot
  1  0.175  0.283  0.160  0.618
 
band   4 # energy   15.38913521 # occ.  0.00000000
 
ion      s      p      d    tot
  1  0.000  0.547  0.116  0.663
 
band   5 # energy   17.19920597 # occ.  0.00000000
 
ion      s      p      d    tot
  1  0.186  0.054  0.332  0.572
 

 k-point   28 :    0.41346154 0.67307692 0.41346154     weight = 0.00312500

band   1 # energy    4.84581791 # occ.  2.00000000
 
ion      s      p      d    tot
  1  0.000  0.497  0.057  0.554
 
band   2 # energy    5.07543712 # occ.  2.00000000
 
ion      s      p      d    tot
  1  0.410  0.161  0.090  0.661
 
band   3 # energy   10.39486701 # occ.  0.00000000
 
ion      s      p      d    tot
  1  0.187  0.276  0.156  0.619
 
band   4 # energy   15.29127702 # occ.  0.00000000
 
ion      s      p      d    tot
  1  0.000  0.551  0.111  0.662
 
band   5 # energy   17.09253266 # occ.  0.00000000
 
ion      s      p      d    tot
  1  0.189  0.048  0.335  0.572
 

 k-point   29 :    0.41025641 0.67948718 0.41025641     weight = 0.00312500

band   1 # energy    4.95730317 # occ.  2.00000000
 
ion      s      p      d    tot
  1  0.001  0.494  0.060  0.555
 
band   2 # energy    5.18806951 # occ.  2.00000000
 
ion      s      p      d    tot
  1  0.396  0.174  0.088  0.659
 
band   3 # energy   10.08705269 # occ.  0.00000000
 
ion      s      p      d    tot
  1  0.199  0.268  0.152  0.619
 
band   4 # energy   15.19729374 # occ.  0.00000000
 
ion      s      p      d    tot
  1  0.000  0.555  0.106  0.661
 
band   5 # energy   16.98938462 # occ.  0.00000000
 
ion      s      p      d    tot
  1  0.192  0.043  0.338  0.573
 

 k-point   30 :    0.40705128 0.68589744 0.40705128     weight = 0.00312500

band   1 # energy    5.07235668 # occ.  2.00000000
 
ion      s      p      d    tot
  1  0.001  0.491  0.064  0.556
 
band   2 # energy    5.30304197 # occ.  2.00000000
 
ion      s      p      d    tot
  1  0.381  0.189  0.087  0.657
 
band   3 # energy    9.78432543 # occ.  0.00000000
 
ion      s      p      d    tot
  1  0.213  0.259  0.149  0.620
 
band   4 # energy   15.10694683 # occ.  0.00000000
 
ion      s      p      d    tot
  1  0.000  0.559  0.101  0.660
 
band   5 # energy   16.88927141 # occ.  0.00000000
 
ion      s      p      d    tot
  1  0.195  0.037  0.341  0.573
 

 k-point   31 :    0.40384615 0.69230769 0.40384615     weight = 0.00312500

band   1 # energy    5.19075600 # occ.  2.00000000
 
ion      s      p      d    tot
  1  0.001  0.489  0.067  0.557
 
band   2 # energy    5.42146412 # occ.  2.00000000
 
ion      s      p      d    tot
  1  0.364  0.205  0.086  0.655
 
band   3 # energy    9.48733735 # occ.  0.00000000
 
ion      s      p      d    tot
  1  0.228  0.248  0.145  0.621
 
band   4 # energy   15.02066400 # occ.  0.00000000
 
ion      s      p      d    tot
  1  0.000  0.563  0.096  0.659
 
band   5 # energy   16.79332799 # occ.  0.00000000
 
ion      s      p      d    tot
  1  0.198  0.033  0.344  0.574
 

 k-point   32 :    0.40064103 0.69871795 0.40064103     weight = 0.00312500

band   1 # energy    5.31190332 # occ.  2.00000000
 
ion      s      p      d    tot
  1  0.002  0.487  0.070  0.559
 
band   2 # energy    5.54221925 # occ.  2.00000000
 
ion      s      p      d    tot
  1  0.344  0.222  0.086  0.652
 
band   3 # energy    9.19569676 # occ.  0.00000000
 
ion      s      p      d    tot
  1  0.245  0.236  0.142  0.623
 
band   4 # energy   14.93822934 # occ.  0.00000000
 
ion      s      p      d    tot
  1  0.000  0.567  0.091  0.658
 
band   5 # energy   16.69936652 # occ.  0.00000000
 
ion      s      p      d    tot
  1  0.200  0.028  0.346  0.575
 

 k-point   33 :    0.39743590 0.70512821 0.39743590     weight = 0.00312500

band   1 # energy    5.43590772 # occ.  2.00000000
 
ion      s      p      d    tot
  1  0.003  0.485  0.073  0.561
 
band   2 # energy    5.66486221 # occ.  2.00000000
 
ion      s      p      d    tot
  1  0.322  0.241  0.085  0.648
 
band   3 # energy    8.91268682 # occ.  0.00000000
 
ion      s      p      d    tot
  1  0.265  0.220  0.140  0.625
 
band   4 # energy   14.86074222 # occ.  0.00000000
 
ion      s      p      d    tot
  1  0.000  0.571  0.087  0.657
 
band   5 # energy   16.61081378 # occ.  0.00000000
 
ion      s      p      d    tot
  1  0.203  0.024  0.349  0.576
 

 k-point   34 :    0.39423077 0.71153846 0.39423077     weight = 0.00312500

band   1 # energy    5.56111706 # occ.  2.00000000
 
ion      s      p      d    tot
  1  0.005  0.485  0.075  0.564
 
band   2 # energy    5.78875723 # occ.  2.00000000
 
ion      s      p      d    tot
  1  0.295  0.263  0.085  0.643
 
band   3 # energy    8.63878338 # occ.  0.00000000
 
ion      s      p      d    tot
  1  0.288  0.202  0.137  0.627
 
band   4 # energy   14.78591507 # occ.  0.00000000
 
ion      s      p      d    tot
  1  0.000  0.574  0.082  0.656
 
band   5 # energy   16.52603130 # occ.  0.00000000
 
ion      s      p      d    tot
  1  0.205  0.020  0.351  0.576
 

 k-point   35 :    0.39102564 0.71794872 0.39102564     weight = 0.00312500

band   1 # energy    5.68587585 # occ.  2.00000000
 
ion      s      p      d    tot
  1  0.007  0.486  0.075  0.568
 
band   2 # energy    5.91323585 # occ.  2.00000000
 
ion      s      p      d    tot
  1  0.263  0.287  0.086  0.636
 
band   3 # energy    8.37653565 # occ.  0.00000000
 
ion      s      p      d    tot
  1  0.315  0.179  0.136  0.630
 
band   4 # energy   14.71493320 # occ.  0.00000000
 
ion      s      p      d    tot
  1  0.000  0.577  0.078  0.656
 
band   5 # energy   16.44505139 # occ.  0.00000000
 
ion      s      p      d    tot
  1  0.206  0.017  0.354  0.577
 

 k-point   36 :    0.38782051 0.72435897 0.38782051     weight = 0.00312500

band   1 # energy    5.80658128 # occ.  2.00000000
 
ion      s      p      d    tot
  1  0.010  0.489  0.074  0.574
 
band   2 # energy    6.03781401 # occ.  2.00000000
 
ion      s      p      d    tot
  1  0.224  0.314  0.088  0.626
 
band   3 # energy    8.13003892 # occ.  0.00000000
 
ion      s      p      d    tot
  1  0.349  0.150  0.135  0.634
 
band   4 # energy   14.64779433 # occ.  0.00000000
 
ion      s      p      d    tot
  1  0.000  0.580  0.075  0.655
 
band   5 # energy   16.36790048 # occ.  0.00000000
 
ion      s      p      d    tot
  1  0.208  0.014  0.356  0.578
 

 k-point   37 :    0.38461538 0.73076923 0.38461538     weight = 0.00312500

band   1 # energy    5.91614921 # occ.  2.00000000
 
ion      s      p      d    tot
  1  0.014  0.498  0.070  0.581
 
band   2 # energy    6.16285676 # occ.  2.00000000
 
ion      s      p      d    tot
  1  0.177  0.343  0.093  0.613
 
band   3 # energy    7.90600606 # occ. -0.00000053
 
ion      s      p      d    tot
  1  0.390  0.114  0.135  0.639
 
band   4 # energy   14.58449631 # occ.  0.00000000
 
ion      s      p      d    tot
  1  0.000  0.583  0.071  0.654
 
band   5 # energy   16.29459916 # occ.  0.00000000
 
ion      s      p      d    tot
  1  0.209  0.011  0.358  0.578
 

 k-point   38 :    0.38141026 0.73717949 0.38141026     weight = 0.00312500

band   1 # energy    6.00163349 # occ.  2.00000000
 
ion      s      p      d    tot
  1  0.013  0.513  0.063  0.590
 
band   2 # energy    6.29050602 # occ.  2.00000006
 
ion      s      p      d    tot
  1  0.128  0.369  0.100  0.597
 
band   3 # energy    7.71524718 # occ. -0.00025905
 
ion      s      p      d    tot
  1  0.438  0.074  0.135  0.647
 
band   4 # energy   14.52503700 # occ.  0.00000000
 
ion      s      p      d    tot
  1  0.000  0.586  0.067  0.653
 
band   5 # energy   16.22516246 # occ.  0.00000000
 
ion      s      p      d    tot
  1  0.210  0.009  0.360  0.579
 

 k-point   39 :    0.37820513 0.74358974 0.37820513     weight = 0.00312500

band   1 # energy    6.04400150 # occ.  2.00000000
 
ion      s      p      d    tot
  1  0.006  0.533  0.056  0.595
 
band   2 # energy    6.42429638 # occ.  2.00000793
 
ion      s      p      d    tot
  1  0.086  0.389  0.108  0.583
 
band   3 # energy    7.57325376 # occ. -0.00707475
 
ion      s      p      d    tot
  1  0.485  0.035  0.136  0.655
 
band   4 # energy   14.46941439 # occ.  0.00000000
 
ion      s      p      d    tot
  1  0.000  0.589  0.064  0.653
 
band   5 # energy   16.15959953 # occ.  0.00000000
 
ion      s      p      d    tot
  1  0.211  0.007  0.362  0.580
 

 k-point   40 :    0.37500000 0.75000000 0.37500000     weight = 0.00312500

band   1 # energy    6.02493972 # occ.  2.00000000
 
ion      s      p      d    tot
  1  0.000  0.545  0.051  0.596
 
band   2 # energy    6.56663773 # occ.  2.00054065
 
ion      s      p      d    tot
  1  0.056  0.401  0.116  0.573
 
band   3 # energy    7.49592080 # occ. -0.02558254
 
ion      s      p      d    tot
  1  0.518  0.013  0.134  0.664
 
band   4 # energy   14.41762661 # occ.  0.00000000
 
ion      s      p      d    tot
  1  0.000  0.591  0.061  0.652
 
band   5 # energy   16.09791417 # occ.  0.00000000
 
ion      s      p      d    tot
  1  0.212  0.005  0.364  0.580
 

 k-point   41 :    0.37500000 0.75000000 0.37500000     weight = 0.00312500

band   1 # energy    6.02493972 # occ.  2.00000000
 
ion      s      p      d    tot
  1  0.000  0.545  0.051  0.596
 
band   2 # energy    6.56663773 # occ.  2.00054065
 
ion      s      p      d    tot
  1  0.056  0.401  0.116  0.573
 
band   3 # energy    7.49592080 # occ. -0.02558254
 
ion      s      p      d    tot
  1  0.518  0.013  0.134  0.664
 
band   4 # energy   14.41762661 # occ.  0.00000000
 
ion      s      p      d    tot
  1  0.000  0.591  0.061  0.652
 
band   5 # energy   16.09791416 # occ.  0.00000000
 
ion      s      p      d    tot
  1  0.212  0.005  0.364  0.580
 

 k-point   42 :    0.37179487 0.75000000 0.37820513     weight = 0.00312500

band   1 # energy    6.02562162 # occ.  2.00000000
 
ion      s      p      d    tot
  1  0.000  0.545  0.051  0.596
 
band   2 # energy    6.56727878 # occ.  2.00054965
 
ion      s      p      d    tot
  1  0.056  0.401  0.116  0.573
 
band   3 # energy    7.49659938 # occ. -0.02534062
 
ion      s      p      d    tot
  1  0.518  0.013  0.134  0.664
 
band   4 # energy   14.39280378 # occ.  0.00000000
 
ion      s      p      d    tot
  1  0.004  0.582  0.065  0.651
 
band   5 # energy   16.12386242 # occ.  0.00000000
 
ion      s      p      d    tot
  1  0.208  0.013  0.360  0.581
 

 k-point   43 :    0.36858974 0.75000000 0.38141026     weight = 0.00312500

band   1 # energy    6.02766731 # occ.  2.00000000
 
ion      s      p      d    tot
  1  0.000  0.545  0.051  0.596
 
band   2 # energy    6.56920147 # occ.  2.00057748
 
ion      s      p      d    tot
  1  0.056  0.401  0.116  0.573
 
band   3 # energy    7.49863461 # occ. -0.02462372
 
ion      s      p      d    tot
  1  0.517  0.013  0.134  0.664
 
band   4 # energy   14.32245992 # occ.  0.00000000
 
ion      s      p      d    tot
  1  0.015  0.560  0.074  0.649
 
band   5 # energy   16.19758255 # occ.  0.00000000
 
ion      s      p      d    tot
  1  0.197  0.035  0.351  0.584
 

 k-point   44 :    0.36538462 0.75000000 0.38461538     weight = 0.00312500

band   1 # energy    6.03107681 # occ.  2.00000000
 
ion      s      p      d    tot
  1  0.000  0.544  0.052  0.596
 
band   2 # energy    6.57240442 # occ.  2.00062671
 
ion      s      p      d    tot
  1  0.056  0.401  0.116  0.573
 
band   3 # energy    7.50202506 # occ. -0.02345856
 
ion      s      p      d    tot
  1  0.517  0.014  0.134  0.664
 
band   4 # energy   14.21620776 # occ.  0.00000000
 
ion      s      p      d    tot
  1  0.029  0.532  0.085  0.646
 
band   5 # energy   16.30946150 # occ.  0.00000000
 
ion      s      p      d    tot
  1  0.183  0.063  0.340  0.586
 

 k-point   45 :    0.36217949 0.75000000 0.38782051     weight = 0.00312500

band   1 # energy    6.03607281 # occ.  2.00000000
 
ion      s      p      d    tot
  1  0.000  0.544  0.052  0.596
 
band   2 # energy    6.57708697 # occ.  2.00070560
 
ion      s      p      d    tot