<?xml version="1.0" encoding="ISO-8859-1"?>
<modeling>
 <generator>
  <i name="program" type="string">vasp </i>
  <i name="version" type="string">5.3.2  </i>
  <i name="subversion" type="string">13Sep12 (build Jun 30 2016 14:08:18) complex                          parallel </i>
  <i name="platform" type="string">LinuxIFC </i>
  <i name="date" type="string">2017 11 09 </i>
  <i name="time" type="string">16:17:52 </i>
 </generator>
 <incar>
  <i type="string" name="SYSTEM"> Al</i>
  <i type="string" name="PREC">normal</i>
  <i type="int" name="ICHARG">    11</i>
  <i name="EDIFF">      0.00000100</i>
  <v name="RWIGS">      1.40200000</v>
  <i type="logical" name="LWAVE"> F  </i>
  <i type="logical" name="LCHARG"> F  </i>
 </incar>
 <kpoints>
  <generation param="listgenerated">
   <i name="divisions" type="int">      40 </i>
   <v>       0.50000000       0.50000000       0.50000000 </v>
   <v>       0.37500000       0.75000000       0.37500000 </v>
   <v>       0.25000000       0.75000000       0.50000000 </v>
   <v>       0.00000000       0.00000000       0.00000000 </v>
   <v>       0.00000000       0.50000000       0.50000000 </v>
   <v>       0.25000000       0.75000000       0.50000000 </v>
   <v>       0.50000000       0.50000000       0.50000000 </v>
   <v>       0.00000000       0.00000000       0.00000000 </v>
   <v>       0.37500000       0.75000000       0.37500000 </v>
  </generation>
  <varray name="kpointlist" >
   <v>       0.50000000       0.50000000       0.50000000 </v>
   <v>       0.49679487       0.50641026       0.49679487 </v>
   <v>       0.49358974       0.51282051       0.49358974 </v>
   <v>       0.49038462       0.51923077       0.49038462 </v>
   <v>       0.48717949       0.52564103       0.48717949 </v>
   <v>       0.48397436       0.53205128       0.48397436 </v>
   <v>       0.48076923       0.53846154       0.48076923 </v>
   <v>       0.47756410       0.54487179       0.47756410 </v>
   <v>       0.47435897       0.55128205       0.47435897 </v>
   <v>       0.47115385       0.55769231       0.47115385 </v>
   <v>       0.46794872       0.56410256       0.46794872 </v>
   <v>       0.46474359       0.57051282       0.46474359 </v>
   <v>       0.46153846       0.57692308       0.46153846 </v>
   <v>       0.45833333       0.58333333       0.45833333 </v>
   <v>       0.45512821       0.58974359       0.45512821 </v>
   <v>       0.45192308       0.59615385       0.45192308 </v>
   <v>       0.44871795       0.60256410       0.44871795 </v>
   <v>       0.44551282       0.60897436       0.44551282 </v>
   <v>       0.44230769       0.61538462       0.44230769 </v>
   <v>       0.43910256       0.62179487       0.43910256 </v>
   <v>       0.43589744       0.62820513       0.43589744 </v>
   <v>       0.43269231       0.63461538       0.43269231 </v>
   <v>       0.42948718       0.64102564       0.42948718 </v>
   <v>       0.42628205       0.64743590       0.42628205 </v>
   <v>       0.42307692       0.65384615       0.42307692 </v>
   <v>       0.41987179       0.66025641       0.41987179 </v>
   <v>       0.41666667       0.66666667       0.41666667 </v>
   <v>       0.41346154       0.67307692       0.41346154 </v>
   <v>       0.41025641       0.67948718       0.41025641 </v>
   <v>       0.40705128       0.68589744       0.40705128 </v>
   <v>       0.40384615       0.69230769       0.40384615 </v>
   <v>       0.40064103       0.69871795       0.40064103 </v>
   <v>       0.39743590       0.70512821       0.39743590 </v>
   <v>       0.39423077       0.71153846       0.39423077 </v>
   <v>       0.39102564       0.71794872       0.39102564 </v>
   <v>       0.38782051       0.72435897       0.38782051 </v>
   <v>       0.38461538       0.73076923       0.38461538 </v>
   <v>       0.38141026       0.73717949       0.38141026 </v>
   <v>       0.37820513       0.74358974       0.37820513 </v>
   <v>       0.37500000       0.75000000       0.37500000 </v>
   <v>       0.37500000       0.75000000       0.37500000 </v>
   <v>       0.37179487       0.75000000       0.37820513 </v>
   <v>       0.36858974       0.75000000       0.38141026 </v>
   <v>       0.36538462       0.75000000       0.38461538 </v>
   <v>       0.36217949       0.75000000       0.38782051 </v>
   <v>       0.35897436       0.75000000       0.39102564 </v>
   <v>       0.35576923       0.75000000       0.39423077 </v>
   <v>       0.35256410       0.75000000       0.39743590 </v>
   <v>       0.34935897       0.75000000       0.40064103 </v>
   <v>       0.34615385       0.75000000       0.40384615 </v>
   <v>       0.34294872       0.75000000       0.40705128 </v>
   <v>       0.33974359       0.75000000       0.41025641 </v>
   <v>       0.33653846       0.75000000       0.41346154 </v>
   <v>       0.33333333       0.75000000       0.41666667 </v>
   <v>       0.33012821       0.75000000       0.41987179 </v>
   <v>       0.32692308       0.75000000       0.42307692 </v>
   <v>       0.32371795       0.75000000       0.42628205 </v>
   <v>       0.32051282       0.75000000       0.42948718 </v>
   <v>       0.31730769       0.75000000       0.43269231 </v>
   <v>       0.31410256       0.75000000       0.43589744 </v>
   <v>       0.31089744       0.75000000       0.43910256 </v>
   <v>       0.30769231       0.75000000       0.44230769 </v>
   <v>       0.30448718       0.75000000       0.44551282 </v>
   <v>       0.30128205       0.75000000       0.44871795 </v>
   <v>       0.29807692       0.75000000       0.45192308 </v>
   <v>       0.29487179       0.75000000       0.45512821 </v>
   <v>       0.29166667       0.75000000       0.45833333 </v>
   <v>       0.28846154       0.75000000       0.46153846 </v>
   <v>       0.28525641       0.75000000       0.46474359 </v>
   <v>       0.28205128       0.75000000       0.46794872 </v>
   <v>       0.27884615       0.75000000       0.47115385 </v>
   <v>       0.27564103       0.75000000       0.47435897 </v>
   <v>       0.27243590       0.75000000       0.47756410 </v>
   <v>       0.26923077       0.75000000       0.48076923 </v>
   <v>       0.26602564       0.75000000       0.48397436 </v>
   <v>       0.26282051       0.75000000       0.48717949 </v>
   <v>       0.25961538       0.75000000       0.49038462 </v>
   <v>       0.25641026       0.75000000       0.49358974 </v>
   <v>       0.25320513       0.75000000       0.49679487 </v>
   <v>       0.25000000       0.75000000       0.50000000 </v>
   <v>       0.25000000       0.75000000       0.50000000 </v>
   <v>       0.24358974       0.73076923       0.48717949 </v>
   <v>       0.23717949       0.71153846       0.47435897 </v>
   <v>       0.23076923       0.69230769       0.46153846 </v>
   <v>       0.22435897       0.67307692       0.44871795 </v>
   <v>       0.21794872       0.65384615       0.43589744 </v>
   <v>       0.21153846       0.63461538       0.42307692 </v>
   <v>       0.20512821       0.61538462       0.41025641 </v>
   <v>       0.19871795       0.59615385       0.39743590 </v>
   <v>       0.19230769       0.57692308       0.38461538 </v>
   <v>       0.18589744       0.55769231       0.37179487 </v>
   <v>       0.17948718       0.53846154       0.35897436 </v>
   <v>       0.17307692       0.51923077       0.34615385 </v>
   <v>       0.16666667       0.50000000       0.33333333 </v>
   <v>       0.16025641       0.48076923       0.32051282 </v>
   <v>       0.15384615       0.46153846       0.30769231 </v>
   <v>       0.14743590       0.44230769       0.29487179 </v>
   <v>       0.14102564       0.42307692       0.28205128 </v>
   <v>       0.13461538       0.40384615       0.26923077 </v>
   <v>       0.12820513       0.38461538       0.25641026 </v>
   <v>       0.12179487       0.36538462       0.24358974 </v>
   <v>       0.11538462       0.34615385       0.23076923 </v>
   <v>       0.10897436       0.32692308       0.21794872 </v>
   <v>       0.10256410       0.30769231       0.20512821 </v>
   <v>       0.09615385       0.28846154       0.19230769 </v>
   <v>       0.08974359       0.26923077       0.17948718 </v>
   <v>       0.08333333       0.25000000       0.16666667 </v>
   <v>       0.07692308       0.23076923       0.15384615 </v>
   <v>       0.07051282       0.21153846       0.14102564 </v>
   <v>       0.06410256       0.19230769       0.12820513 </v>
   <v>       0.05769231       0.17307692       0.11538462 </v>
   <v>       0.05128205       0.15384615       0.10256410 </v>
   <v>       0.04487179       0.13461538       0.08974359 </v>
   <v>       0.03846154       0.11538462       0.07692308 </v>
   <v>       0.03205128       0.09615385       0.06410256 </v>
   <v>       0.02564103       0.07692308       0.05128205 </v>
   <v>       0.01923077       0.05769231       0.03846154 </v>
   <v>       0.01282051       0.03846154       0.02564103 </v>
   <v>       0.00641026       0.01923077       0.01282051 </v>
   <v>       0.00000000       0.00000000       0.00000000 </v>
   <v>       0.00000000       0.00000000       0.00000000 </v>
   <v>       0.00000000       0.01282051       0.01282051 </v>
   <v>       0.00000000       0.02564103       0.02564103 </v>
   <v>       0.00000000       0.03846154       0.03846154 </v>
   <v>       0.00000000       0.05128205       0.05128205 </v>
   <v>       0.00000000       0.06410256       0.06410256 </v>
   <v>       0.00000000       0.07692308       0.07692308 </v>
   <v>       0.00000000       0.08974359       0.08974359 </v>
   <v>       0.00000000       0.10256410       0.10256410 </v>
   <v>       0.00000000       0.11538462       0.11538462 </v>
   <v>       0.00000000       0.12820513       0.12820513 </v>
   <v>       0.00000000       0.14102564       0.14102564 </v>
   <v>       0.00000000       0.15384615       0.15384615 </v>
   <v>       0.00000000       0.16666667       0.16666667 </v>
   <v>       0.00000000       0.17948718       0.17948718 </v>
   <v>       0.00000000       0.19230769       0.19230769 </v>
   <v>       0.00000000       0.20512821       0.20512821 </v>
   <v>       0.00000000       0.21794872       0.21794872 </v>
   <v>       0.00000000       0.23076923       0.23076923 </v>
   <v>       0.00000000       0.24358974       0.24358974 </v>
   <v>       0.00000000       0.25641026       0.25641026 </v>
   <v>       0.00000000       0.26923077       0.26923077 </v>
   <v>       0.00000000       0.28205128       0.28205128 </v>
   <v>       0.00000000       0.29487179       0.29487179 </v>
   <v>       0.00000000       0.30769231       0.30769231 </v>
   <v>       0.00000000       0.32051282       0.32051282 </v>
   <v>       0.00000000       0.33333333       0.33333333 </v>
   <v>       0.00000000       0.34615385       0.34615385 </v>
   <v>       0.00000000       0.35897436       0.35897436 </v>
   <v>       0.00000000       0.37179487       0.37179487 </v>
   <v>       0.00000000       0.38461538       0.38461538 </v>
   <v>       0.00000000       0.39743590       0.39743590 </v>
   <v>       0.00000000       0.41025641       0.41025641 </v>
   <v>       0.00000000       0.42307692       0.42307692 </v>
   <v>       0.00000000       0.43589744       0.43589744 </v>
   <v>       0.00000000       0.44871795       0.44871795 </v>
   <v>       0.00000000       0.46153846       0.46153846 </v>
   <v>       0.00000000       0.47435897       0.47435897 </v>
   <v>       0.00000000       0.48717949       0.48717949 </v>
   <v>       0.00000000       0.50000000       0.50000000 </v>
   <v>       0.00000000       0.50000000       0.50000000 </v>
   <v>       0.00641026       0.50641026       0.50000000 </v>
   <v>       0.01282051       0.51282051       0.50000000 </v>
   <v>       0.01923077       0.51923077       0.50000000 </v>
   <v>       0.02564103       0.52564103       0.50000000 </v>
   <v>       0.03205128       0.53205128       0.50000000 </v>
   <v>       0.03846154       0.53846154       0.50000000 </v>
   <v>       0.04487179       0.54487179       0.50000000 </v>
   <v>       0.05128205       0.55128205       0.50000000 </v>
   <v>       0.05769231       0.55769231       0.50000000 </v>
   <v>       0.06410256       0.56410256       0.50000000 </v>
   <v>       0.07051282       0.57051282       0.50000000 </v>
   <v>       0.07692308       0.57692308       0.50000000 </v>
   <v>       0.08333333       0.58333333       0.50000000 </v>
   <v>       0.08974359       0.58974359       0.50000000 </v>
   <v>       0.09615385       0.59615385       0.50000000 </v>
   <v>       0.10256410       0.60256410       0.50000000 </v>
   <v>       0.10897436       0.60897436       0.50000000 </v>
   <v>       0.11538462       0.61538462       0.50000000 </v>
   <v>       0.12179487       0.62179487       0.50000000 </v>
   <v>       0.12820513       0.62820513       0.50000000 </v>
   <v>       0.13461538       0.63461538       0.50000000 </v>
   <v>       0.14102564       0.64102564       0.50000000 </v>
   <v>       0.14743590       0.64743590       0.50000000 </v>
   <v>       0.15384615       0.65384615       0.50000000 </v>
   <v>       0.16025641       0.66025641       0.50000000 </v>
   <v>       0.16666667       0.66666667       0.50000000 </v>
   <v>       0.17307692       0.67307692       0.50000000 </v>
   <v>       0.17948718       0.67948718       0.50000000 </v>
   <v>       0.18589744       0.68589744       0.50000000 </v>
   <v>       0.19230769       0.69230769       0.50000000 </v>
   <v>       0.19871795       0.69871795       0.50000000 </v>
   <v>       0.20512821       0.70512821       0.50000000 </v>
   <v>       0.21153846       0.71153846       0.50000000 </v>
   <v>       0.21794872       0.71794872       0.50000000 </v>
   <v>       0.22435897       0.72435897       0.50000000 </v>
   <v>       0.23076923       0.73076923       0.50000000 </v>
   <v>       0.23717949       0.73717949       0.50000000 </v>
   <v>       0.24358974       0.74358974       0.50000000 </v>
   <v>       0.25000000       0.75000000       0.50000000 </v>
   <v>       0.25000000       0.75000000       0.50000000 </v>
   <v>       0.25641026       0.74358974       0.50000000 </v>
   <v>       0.26282051       0.73717949       0.50000000 </v>
   <v>       0.26923077       0.73076923       0.50000000 </v>
   <v>       0.27564103       0.72435897       0.50000000 </v>
   <v>       0.28205128       0.71794872       0.50000000 </v>
   <v>       0.28846154       0.71153846       0.50000000 </v>
   <v>       0.29487179       0.70512821       0.50000000 </v>
   <v>       0.30128205       0.69871795       0.50000000 </v>
   <v>       0.30769231       0.69230769       0.50000000 </v>
   <v>       0.31410256       0.68589744       0.50000000 </v>
   <v>       0.32051282       0.67948718       0.50000000 </v>
   <v>       0.32692308       0.67307692       0.50000000 </v>
   <v>       0.33333333       0.66666667       0.50000000 </v>
   <v>       0.33974359       0.66025641       0.50000000 </v>
   <v>       0.34615385       0.65384615       0.50000000 </v>
   <v>       0.35256410       0.64743590       0.50000000 </v>
   <v>       0.35897436       0.64102564       0.50000000 </v>
   <v>       0.36538462       0.63461538       0.50000000 </v>
   <v>       0.37179487       0.62820513       0.50000000 </v>
   <v>       0.37820513       0.62179487       0.50000000 </v>
   <v>       0.38461538       0.61538462       0.50000000 </v>
   <v>       0.39102564       0.60897436       0.50000000 </v>
   <v>       0.39743590       0.60256410       0.50000000 </v>
   <v>       0.40384615       0.59615385       0.50000000 </v>
   <v>       0.41025641       0.58974359       0.50000000 </v>
   <v>       0.41666667       0.58333333       0.50000000 </v>
   <v>       0.42307692       0.57692308       0.50000000 </v>
   <v>       0.42948718       0.57051282       0.50000000 </v>
   <v>       0.43589744       0.56410256       0.50000000 </v>
   <v>       0.44230769       0.55769231       0.50000000 </v>
   <v>       0.44871795       0.55128205       0.50000000 </v>
   <v>       0.45512821       0.54487179       0.50000000 </v>
   <v>       0.46153846       0.53846154       0.50000000 </v>
   <v>       0.46794872       0.53205128       0.50000000 </v>
   <v>       0.47435897       0.52564103       0.50000000 </v>
   <v>       0.48076923       0.51923077       0.50000000 </v>
   <v>       0.48717949       0.51282051       0.50000000 </v>
   <v>       0.49358974       0.50641026       0.50000000 </v>
   <v>       0.50000000       0.50000000       0.50000000 </v>
   <v>       0.50000000       0.50000000       0.50000000 </v>
   <v>       0.48717949       0.48717949       0.48717949 </v>
   <v>       0.47435897       0.47435897       0.47435897 </v>
   <v>       0.46153846       0.46153846       0.46153846 </v>
   <v>       0.44871795       0.44871795       0.44871795 </v>
   <v>       0.43589744       0.43589744       0.43589744 </v>
   <v>       0.42307692       0.42307692       0.42307692 </v>
   <v>       0.41025641       0.41025641       0.41025641 </v>
   <v>       0.39743590       0.39743590       0.39743590 </v>
   <v>       0.38461538       0.38461538       0.38461538 </v>
   <v>       0.37179487       0.37179487       0.37179487 </v>
   <v>       0.35897436       0.35897436       0.35897436 </v>
   <v>       0.34615385       0.34615385       0.34615385 </v>
   <v>       0.33333333       0.33333333       0.33333333 </v>
   <v>       0.32051282       0.32051282       0.32051282 </v>
   <v>       0.30769231       0.30769231       0.30769231 </v>
   <v>       0.29487179       0.29487179       0.29487179 </v>
   <v>       0.28205128       0.28205128       0.28205128 </v>
   <v>       0.26923077       0.26923077       0.26923077 </v>
   <v>       0.25641026       0.25641026       0.25641026 </v>
   <v>       0.24358974       0.24358974       0.24358974 </v>
   <v>       0.23076923       0.23076923       0.23076923 </v>
   <v>       0.21794872       0.21794872       0.21794872 </v>
   <v>       0.20512821       0.20512821       0.20512821 </v>
   <v>       0.19230769       0.19230769       0.19230769 </v>
   <v>       0.17948718       0.17948718       0.17948718 </v>
   <v>       0.16666667       0.16666667       0.16666667 </v>
   <v>       0.15384615       0.15384615       0.15384615 </v>
   <v>       0.14102564       0.14102564       0.14102564 </v>
   <v>       0.12820513       0.12820513       0.12820513 </v>
   <v>       0.11538462       0.11538462       0.11538462 </v>
   <v>       0.10256410       0.10256410       0.10256410 </v>
   <v>       0.08974359       0.08974359       0.08974359 </v>
   <v>       0.07692308       0.07692308       0.07692308 </v>
   <v>       0.06410256       0.06410256       0.06410256 </v>
   <v>       0.05128205       0.05128205       0.05128205 </v>
   <v>       0.03846154       0.03846154       0.03846154 </v>
   <v>       0.02564103       0.02564103       0.02564103 </v>
   <v>       0.01282051       0.01282051       0.01282051 </v>
   <v>       0.00000000       0.00000000       0.00000000 </v>
   <v>       0.00000000       0.00000000       0.00000000 </v>
   <v>       0.00961538       0.01923077       0.00961538 </v>
   <v>       0.01923077       0.03846154       0.01923077 </v>
   <v>       0.02884615       0.05769231       0.02884615 </v>
   <v>       0.03846154       0.07692308       0.03846154 </v>
   <v>       0.04807692       0.09615385       0.04807692 </v>
   <v>       0.05769231       0.11538462       0.05769231 </v>
   <v>       0.06730769       0.13461538       0.06730769 </v>
   <v>       0.07692308       0.15384615       0.07692308 </v>
   <v>       0.08653846       0.17307692       0.08653846 </v>
   <v>       0.09615385       0.19230769       0.09615385 </v>
   <v>       0.10576923       0.21153846       0.10576923 </v>
   <v>       0.11538462       0.23076923       0.11538462 </v>
   <v>       0.12500000       0.25000000       0.12500000 </v>
   <v>       0.13461538       0.26923077       0.13461538 </v>
   <v>       0.14423077       0.28846154       0.14423077 </v>
   <v>       0.15384615       0.30769231       0.15384615 </v>
   <v>       0.16346154       0.32692308       0.16346154 </v>
   <v>       0.17307692       0.34615385       0.17307692 </v>
   <v>       0.18269231       0.36538462       0.18269231 </v>
   <v>       0.19230769       0.38461538       0.19230769 </v>
   <v>       0.20192308       0.40384615       0.20192308 </v>
   <v>       0.21153846       0.42307692       0.21153846 </v>
   <v>       0.22115385       0.44230769       0.22115385 </v>
   <v>       0.23076923       0.46153846       0.23076923 </v>
   <v>       0.24038462       0.48076923       0.24038462 </v>
   <v>       0.25000000       0.50000000       0.25000000 </v>
   <v>       0.25961538       0.51923077       0.25961538 </v>
   <v>       0.26923077       0.53846154       0.26923077 </v>
   <v>       0.27884615       0.55769231       0.27884615 </v>
   <v>       0.28846154       0.57692308       0.28846154 </v>
   <v>       0.29807692       0.59615385       0.29807692 </v>
   <v>       0.30769231       0.61538462       0.30769231 </v>
   <v>       0.31730769       0.63461538       0.31730769 </v>
   <v>       0.32692308       0.65384615       0.32692308 </v>
   <v>       0.33653846       0.67307692       0.33653846 </v>
   <v>       0.34615385       0.69230769       0.34615385 </v>
   <v>       0.35576923       0.71153846       0.35576923 </v>
   <v>       0.36538462       0.73076923       0.36538462 </v>
   <v>       0.37500000       0.75000000       0.37500000 </v>
  </varray>
  <varray name="weights" >
   <v>       0.00312500 </v>
   <v>       0.00312500 </v>
   <v>       0.00312500 </v>
   <v>       0.00312500 </v>
   <v>       0.00312500 </v>
   <v>       0.00312500 </v>
   <v>       0.00312500 </v>
   <v>       0.00312500 </v>
   <v>       0.00312500 </v>
   <v>       0.00312500 </v>
   <v>       0.00312500 </v>
   <v>       0.00312500 </v>
   <v>       0.00312500 </v>
   <v>       0.00312500 </v>
   <v>       0.00312500 </v>
   <v>       0.00312500 </v>
   <v>       0.00312500 </v>
   <v>       0.00312500 </v>
   <v>       0.00312500 </v>
   <v>       0.00312500 </v>
   <v>       0.00312500 </v>
   <v>       0.00312500 </v>
   <v>       0.00312500 </v>
   <v>       0.00312500 </v>
   <v>       0.00312500 </v>
   <v>       0.00312500 </v>
   <v>       0.00312500 </v>
   <v>       0.00312500 </v>
   <v>       0.00312500 </v>
   <v>       0.00312500 </v>
   <v>       0.00312500 </v>
   <v>       0.00312500 </v>
   <v>       0.00312500 </v>
   <v>       0.00312500 </v>
   <v>       0.00312500 </v>
   <v>       0.00312500 </v>
   <v>       0.00312500 </v>
   <v>       0.00312500 </v>
   <v>       0.00312500 </v>
   <v>       0.00312500 </v>
   <v>       0.00312500 </v>
   <v>       0.00312500 </v>
   <v>       0.00312500 </v>
   <v>       0.00312500 </v>
   <v>       0.00312500 </v>
   <v>       0.00312500 </v>
   <v>       0.00312500 </v>
   <v>       0.00312500 </v>
   <v>       0.00312500 </v>
   <v>       0.00312500 </v>
   <v>       0.00312500 </v>
   <v>       0.00312500 </v>
   <v>       0.00312500 </v>
   <v>       0.00312500 </v>
   <v>       0.00312500 </v>
   <v>       0.00312500 </v>
   <v>       0.00312500 </v>
   <v>       0.00312500 </v>
   <v>       0.00312500 </v>
   <v>       0.00312500 </v>
   <v>       0.00312500 </v>
   <v>       0.00312500 </v>
   <v>       0.00312500 </v>
   <v>       0.00312500 </v>
   <v>       0.00312500 </v>
   <v>       0.00312500 </v>
   <v>       0.00312500 </v>
   <v>       0.00312500 </v>
   <v>       0.00312500 </v>
   <v>       0.00312500 </v>
   <v>       0.00312500 </v>
   <v>       0.00312500 </v>
   <v>       0.00312500 </v>
   <v>       0.00312500 </v>
   <v>       0.00312500 </v>
   <v>       0.00312500 </v>
   <v>       0.00312500 </v>
   <v>       0.00312500 </v>
   <v>       0.00312500 </v>
   <v>       0.00312500 </v>
   <v>       0.00312500 </v>
   <v>       0.00312500 </v>
   <v>       0.00312500 </v>
   <v>       0.00312500 </v>
   <v>       0.00312500 </v>
   <v>       0.00312500 </v>
   <v>       0.00312500 </v>
   <v>       0.00312500 </v>
   <v>       0.00312500 </v>
   <v>       0.00312500 </v>
   <v>       0.00312500 </v>
   <v>       0.00312500 </v>
   <v>       0.00312500 </v>
   <v>       0.00312500 </v>
   <v>       0.00312500 </v>
   <v>       0.00312500 </v>
   <v>       0.00312500 </v>
   <v>       0.00312500 </v>
   <v>       0.00312500 </v>
   <v>       0.00312500 </v>
   <v>       0.00312500 </v>
   <v>       0.00312500 </v>
   <v>       0.00312500 </v>
   <v>       0.00312500 </v>
   <v>       0.00312500 </v>
   <v>       0.00312500 </v>
   <v>       0.00312500 </v>
   <v>       0.00312500 </v>
   <v>       0.00312500 </v>
   <v>       0.00312500 </v>
   <v>       0.00312500 </v>
   <v>       0.00312500 </v>
   <v>       0.00312500 </v>
   <v>       0.00312500 </v>
   <v>       0.00312500 </v>
   <v>       0.00312500 </v>
   <v>       0.00312500 </v>
   <v>       0.00312500 </v>
   <v>       0.00312500 </v>
   <v>       0.00312500 </v>
   <v>       0.00312500 </v>
   <v>       0.00312500 </v>
   <v>       0.00312500 </v>
   <v>       0.00312500 </v>
   <v>       0.00312500 </v>
   <v>       0.00312500 </v>
   <v>       0.00312500 </v>
   <v>       0.00312500 </v>
   <v>       0.00312500 </v>
   <v>       0.00312500 </v>
   <v>       0.00312500 </v>
   <v>       0.00312500 </v>
   <v>       0.00312500 </v>
   <v>       0.00312500 </v>
   <v>       0.00312500 </v>
   <v>       0.00312500 </v>
   <v>       0.00312500 </v>
   <v>       0.00312500 </v>
   <v>       0.00312500 </v>
   <v>       0.00312500 </v>
   <v>       0.00312500 </v>
   <v>       0.00312500 </v>
   <v>       0.00312500 </v>
   <v>       0.00312500 </v>
   <v>       0.00312500 </v>
   <v>       0.00312500 </v>
   <v>       0.00312500 </v>
   <v>       0.00312500 </v>
   <v>       0.00312500 </v>
   <v>       0.00312500 </v>
   <v>       0.00312500 </v>
   <v>       0.00312500 </v>
   <v>       0.00312500 </v>
   <v>       0.00312500 </v>
   <v>       0.00312500 </v>
   <v>       0.00312500 </v>
   <v>       0.00312500 </v>
   <v>       0.00312500 </v>
   <v>       0.00312500 </v>
   <v>       0.00312500 </v>
   <v>       0.00312500 </v>
   <v>       0.00312500 </v>
   <v>       0.00312500 </v>
   <v>       0.00312500 </v>
   <v>       0.00312500 </v>
   <v>       0.00312500 </v>
   <v>       0.00312500 </v>
   <v>       0.00312500 </v>
   <v>       0.00312500 </v>
   <v>       0.00312500 </v>
   <v>       0.00312500 </v>
   <v>       0.00312500 </v>
   <v>       0.00312500 </v>
   <v>       0.00312500 </v>
   <v>       0.00312500 </v>
   <v>       0.00312500 </v>
   <v>       0.00312500 </v>
   <v>       0.00312500 </v>
   <v>       0.00312500 </v>
   <v>       0.00312500 </v>
   <v>       0.00312500 </v>
   <v>       0.00312500 </v>
   <v>       0.00312500 </v>
   <v>       0.00312500 </v>
   <v>       0.00312500 </v>
   <v>       0.00312500 </v>
   <v>       0.00312500 </v>
   <v>       0.00312500 </v>
   <v>       0.00312500 </v>
   <v>       0.00312500 </v>
   <v>       0.00312500 </v>
   <v>       0.00312500 </v>
   <v>       0.00312500 </v>
   <v>       0.00312500 </v>
   <v>       0.00312500 </v>
   <v>       0.00312500 </v>
   <v>       0.00312500 </v>
   <v>       0.00312500 </v>
   <v>       0.00312500 </v>
   <v>       0.00312500 </v>
   <v>       0.00312500 </v>
   <v>       0.00312500 </v>
   <v>       0.00312500 </v>
   <v>       0.00312500 </v>
   <v>       0.00312500 </v>
   <v>       0.00312500 </v>
   <v>       0.00312500 </v>
   <v>       0.00312500 </v>
   <v>       0.00312500 </v>
   <v>       0.00312500 </v>
   <v>       0.00312500 </v>
   <v>       0.00312500 </v>
   <v>       0.00312500 </v>
   <v>       0.00312500 </v>
   <v>       0.00312500 </v>
   <v>       0.00312500 </v>
   <v>       0.00312500 </v>
   <v>       0.00312500 </v>
   <v>       0.00312500 </v>
   <v>       0.00312500 </v>
   <v>       0.00312500 </v>
   <v>       0.00312500 </v>
   <v>       0.00312500 </v>
   <v>       0.00312500 </v>
   <v>       0.00312500 </v>
   <v>       0.00312500 </v>
   <v>       0.00312500 </v>
   <v>       0.00312500 </v>
   <v>       0.00312500 </v>
   <v>       0.00312500 </v>
   <v>       0.00312500 </v>
   <v>       0.00312500 </v>
   <v>       0.00312500 </v>
   <v>       0.00312500 </v>
   <v>       0.00312500 </v>
   <v>       0.00312500 </v>
   <v>       0.00312500 </v>
   <v>       0.00312500 </v>
   <v>       0.00312500 </v>
   <v>       0.00312500 </v>
   <v>       0.00312500 </v>
   <v>       0.00312500 </v>
   <v>       0.00312500 </v>
   <v>       0.00312500 </v>
   <v>       0.00312500 </v>
   <v>       0.00312500 </v>
   <v>       0.00312500 </v>
   <v>       0.00312500 </v>
   <v>       0.00312500 </v>
   <v>       0.00312500 </v>
   <v>       0.00312500 </v>
   <v>       0.00312500 </v>
   <v>       0.00312500 </v>
   <v>       0.00312500 </v>
   <v>       0.00312500 </v>
   <v>       0.00312500 </v>
   <v>       0.00312500 </v>
   <v>       0.00312500 </v>
   <v>       0.00312500 </v>
   <v>       0.00312500 </v>
   <v>       0.00312500 </v>
   <v>       0.00312500 </v>
   <v>       0.00312500 </v>
   <v>       0.00312500 </v>
   <v>       0.00312500 </v>
   <v>       0.00312500 </v>
   <v>       0.00312500 </v>
   <v>       0.00312500 </v>
   <v>       0.00312500 </v>
   <v>       0.00312500 </v>
   <v>       0.00312500 </v>
   <v>       0.00312500 </v>
   <v>       0.00312500 </v>
   <v>       0.00312500 </v>
   <v>       0.00312500 </v>
   <v>       0.00312500 </v>
   <v>       0.00312500 </v>
   <v>       0.00312500 </v>
   <v>       0.00312500 </v>
   <v>       0.00312500 </v>
   <v>       0.00312500 </v>
   <v>       0.00312500 </v>
   <v>       0.00312500 </v>
   <v>       0.00312500 </v>
   <v>       0.00312500 </v>
   <v>       0.00312500 </v>
   <v>       0.00312500 </v>
   <v>       0.00312500 </v>
   <v>       0.00312500 </v>
   <v>       0.00312500 </v>
   <v>       0.00312500 </v>
   <v>       0.00312500 </v>
   <v>       0.00312500 </v>
   <v>       0.00312500 </v>
   <v>       0.00312500 </v>
   <v>       0.00312500 </v>
   <v>       0.00312500 </v>
   <v>       0.00312500 </v>
   <v>       0.00312500 </v>
   <v>       0.00312500 </v>
   <v>       0.00312500 </v>
   <v>       0.00312500 </v>
   <v>       0.00312500 </v>
   <v>       0.00312500 </v>
   <v>       0.00312500 </v>
   <v>       0.00312500 </v>
   <v>       0.00312500 </v>
   <v>       0.00312500 </v>
   <v>       0.00312500 </v>
   <v>       0.00312500 </v>
   <v>       0.00312500 </v>
   <v>       0.00312500 </v>
   <v>       0.00312500 </v>
   <v>       0.00312500 </v>
   <v>       0.00312500 </v>
   <v>       0.00312500 </v>
   <v>       0.00312500 </v>
   <v>       0.00312500 </v>
   <v>       0.00312500 </v>
   <v>       0.00312500 </v>
  </varray>
 </kpoints>
 <parameters>
  <separator name="general" >
   <i type="string" name="SYSTEM">Al</i>
   <i type="logical" name="LCOMPAT"> F  </i>
  </separator>
  <separator name="electronic" >
   <i type="string" name="PREC">normal</i>
   <i name="ENMAX">    240.43700000</i>
   <i name="ENAUG">    291.05200000</i>
   <i name="EDIFF">      0.00000100</i>
   <i type="int" name="IALGO">    38</i>
   <i type="int" name="IWAVPR">    10</i>
   <i type="int" name="NBANDS">     5</i>
   <i name="NELECT">      3.00000000</i>
   <i type="int" name="TURBO">     0</i>
   <i type="int" name="IRESTART">     0</i>
   <i type="int" name="NREBOOT">     0</i>
   <i type="int" name="NMIN">     0</i>
   <i name="EREF">      0.00000000</i>
   <separator name="electronic smearing" >
    <i type="int" name="ISMEAR">     1</i>
    <i name="SIGMA">      0.20000000</i>
    <i name="KSPACING">      0.50000000</i>
    <i type="logical" name="KGAMMA"> T  </i>
   </separator>
   <separator name="electronic projectors" >
    <i type="logical" name="LREAL"> F  </i>
    <v name="ROPT">      0.00000000</v>
    <i type="int" name="LMAXPAW">  -100</i>
    <i type="int" name="LMAXMIX">     2</i>
    <i type="logical" name="NLSPLINE"> F  </i>
   </separator>
   <separator name="electronic startup" >
    <i type="int" name="ISTART">     0</i>
    <i type="int" name="ICHARG">    11</i>
    <i type="int" name="INIWAV">     1</i>
   </separator>
   <separator name="electronic spin" >
    <i type="int" name="ISPIN">     1</i>
    <i type="logical" name="LNONCOLLINEAR"> F  </i>
    <v name="MAGMOM">      1.00000000</v>
    <i name="NUPDOWN">     -1.00000000</i>
    <i type="logical" name="LSORBIT"> F  </i>
    <v name="SAXIS">      0.00000000      0.00000000      1.00000000</v>
    <i type="logical" name="LSPIRAL"> F  </i>
    <v name="QSPIRAL">      0.00000000      0.00000000      0.00000000</v>
    <i type="logical" name="LZEROZ"> F  </i>
   </separator>
   <separator name="electronic exchange-correlation" >
    <i type="logical" name="LASPH"> F  </i>
    <i type="logical" name="LMETAGGA"> F  </i>
   </separator>
   <separator name="electronic convergence" >
    <i type="int" name="NELM">    60</i>
    <i type="int" name="NELMDL">    -5</i>
    <i type="int" name="NELMIN">     2</i>
    <i name="ENINI">    240.43700000</i>
    <separator name="electronic convergence detail" >
     <i type="logical" name="LDIAG"> T  </i>
     <i type="logical" name="LSUBROT"> T  </i>
     <i name="WEIMIN">      0.00000000</i>
     <i name="EBREAK">      0.00000005</i>
     <i name="DEPER">      0.30000000</i>
     <i type="int" name="NRMM">     4</i>
     <i name="TIME">      0.40000000</i>
    </separator>
   </separator>
   <separator name="electronic mixer" >
    <i name="AMIX">      0.40000000</i>
    <i name="BMIX">      1.00000000</i>
    <i name="AMIN">      0.10000000</i>
    <i name="AMIX_MAG">      1.60000000</i>
    <i name="BMIX_MAG">      1.00000000</i>
    <separator name="electronic mixer details" >
     <i type="int" name="IMIX">     4</i>
     <i type="int" name="MAXMIX">   -45</i>
     <i name="WC">    100.00000000</i>
     <i type="int" name="INIMIX">     1</i>
     <i type="int" name="MIXPRE">     1</i>
     <i type="int" name="MREMOVE">     5</i>
    </separator>
   </separator>
   <separator name="electronic dipolcorrection" >
    <i type="logical" name="LDIPOL"> F  </i>
    <i type="logical" name="LMONO"> F  </i>
    <i type="int" name="IDIPOL">     0</i>
    <i name="EPSILON">      1.00000000</i>
    <v name="DIPOL">   -100.00000000   -100.00000000   -100.00000000</v>
    <i name="EFIELD">      0.00000000</i>
   </separator>
  </separator>
  <separator name="grids" >
   <i type="int" name="NGX">    12</i>
   <i type="int" name="NGY">    12</i>
   <i type="int" name="NGZ">    12</i>
   <i type="int" name="NGXF">    24</i>
   <i type="int" name="NGYF">    24</i>
   <i type="int" name="NGZF">    24</i>
   <i type="logical" name="ADDGRID"> F  </i>
  </separator>
  <separator name="ionic" >
   <i type="int" name="NSW">     0</i>
   <i type="int" name="IBRION">    -1</i>
   <i type="int" name="ISIF">     2</i>
   <i name="PSTRESS">      0.00000000</i>
   <i name="EDIFFG">      0.00001000</i>
   <i type="int" name="NFREE">     0</i>
   <i name="POTIM">      0.50000000</i>
   <i name="SMASS">     -3.00000000</i>
   <i name="SCALEE">      1.00000000</i>
  </separator>
  <separator name="ionic md" >
   <i name="TEBEG">      0.00010000</i>
   <i name="TEEND">      0.00010000</i>
   <i type="int" name="NBLOCK">     1</i>
   <i type="int" name="KBLOCK">     1</i>
   <i type="int" name="NPACO">   256</i>
   <i name="APACO">     16.00000000</i>
  </separator>
  <separator name="symmetry" >
   <i type="int" name="ISYM">     2</i>
   <i name="SYMPREC">      0.00001000</i>
  </separator>
  <separator name="dos" >
   <i type="logical" name="LORBIT"> F  </i>
   <v name="RWIGS">      1.40200000</v>
   <i type="int" name="NEDOS">   301</i>
   <i name="EMIN">     10.00000000</i>
   <i name="EMAX">    -10.00000000</i>
   <i name="EFERMI">      0.00000000</i>
  </separator>
  <separator name="writing" >
   <i type="int" name="NWRITE">     2</i>
   <i type="logical" name="LWAVE"> F  </i>
   <i type="logical" name="LCHARG"> F  </i>
   <i type="logical" name="LPARD"> F  </i>
   <i type="logical" name="LVTOT"> F  </i>
   <i type="logical" name="LVHAR"> F  </i>
   <i type="logical" name="LELF"> F  </i>
   <i type="logical" name="LOPTICS"> F  </i>
   <v name="STM">      0.00000000      0.00000000      0.00000000      0.00000000      0.00000000      0.00000000      0.00000000</v>
  </separator>
  <separator name="performance" >
   <i type="int" name="NPAR">     1</i>
   <i type="int" name="NSIM">     4</i>
   <i type="int" name="NBLK">    -1</i>
   <i type="logical" name="LPLANE"> T  </i>
   <i type="logical" name="LSCALAPACK"> F  </i>
   <i type="logical" name="LSCAAWARE"> F  </i>
   <i type="logical" name="LSCALU"> F  </i>
   <i type="logical" name="LASYNC"> F  </i>
   <i type="logical" name="LORBITALREAL"> F  </i>
  </separator>
  <separator name="miscellaneous" >
   <i type="int" name="IDIOT">     3</i>
   <i type="logical" name="LMUSIC"> F  </i>
   <v name="POMASS">     26.98200000</v>
   <v name="DARWINR">      0.00000000</v>
   <v name="DARWINV">      1.00000000</v>
   <i type="logical" name="LCORR"> T  </i>
  </separator>
  <i type="logical" name="GGA_COMPAT"> T  </i>
  <i type="logical" name="LBERRY"> F  </i>
  <i type="int" name="ICORELEVEL">     0</i>
  <i type="logical" name="LDAU"> F  </i>
  <i type="int" name="I_CONSTRAINED_M">     0</i>
  <separator name="electronic exchange-correlation" >
   <i type="string" name="GGA">--</i>
   <i type="int" name="VOSKOWN">     0</i>
   <i type="logical" name="LHFCALC"> F  </i>
   <i type="string" name="PRECFOCK"></i>
   <i type="logical" name="LSYMGRAD"> F  </i>
   <i type="logical" name="LHFONE"> F  </i>
   <i type="logical" name="LRHFCALC"> F  </i>
   <i type="logical" name="LTHOMAS"> F  </i>
   <i type="logical" name="LMODELHF"> F  </i>
   <i name="ENCUT4O">     -1.00000000</i>
   <i type="int" name="EXXOEP">     0</i>
   <i type="int" name="FOURORBIT">     0</i>
   <i name="AEXX">      0.00000000</i>
   <i name="HFALPHA">      0.00000000</i>
   <i name="MCALPHA">      0.00000000</i>
   <i name="ALDAX">      1.00000000</i>
   <i name="AGGAX">      1.00000000</i>
   <i name="ALDAC">      1.00000000</i>
   <i name="AGGAC">      1.00000000</i>
   <i type="int" name="NKREDX">     1</i>
   <i type="int" name="NKREDY">     1</i>
   <i type="int" name="NKREDZ">     1</i>
   <i type="logical" name="SHIFTRED"> F  </i>
   <i type="logical" name="ODDONLY"> F  </i>
   <i type="logical" name="EVENONLY"> F  </i>
   <i type="int" name="LMAXFOCK">     0</i>
   <i type="int" name="NMAXFOCKAE">     0</i>
   <i type="logical" name="LFOCKAEDFT"> F  </i>
   <i name="HFSCREEN">      0.00000000</i>
   <i name="HFSCREENC">      0.00000000</i>
   <i type="int" name="NBANDSGWLOW">     0</i>
  </separator>
  <separator name="vdW DFT" >
   <i type="logical" name="LUSE_VDW"> F  </i>
   <i name="Zab_VDW">     -0.84910000</i>
   <i name="PARAM1">      0.12340000</i>
   <i name="PARAM2">      1.00000000</i>
   <i name="PARAM3">      0.00000000</i>
  </separator>
  <separator name="model GW" >
   <i type="int" name="MODEL_GW">     0</i>
   <i name="MODEL_EPS0">      9.96451875</i>
   <i name="MODEL_ALPHA">      1.00000000</i>
  </separator>
  <separator name="linear response parameters" >
   <i type="logical" name="LEPSILON"> F  </i>
   <i type="logical" name="LRPA"> F  </i>
   <i type="logical" name="LNABLA"> F  </i>
   <i type="logical" name="LVEL"> F  </i>
   <i type="int" name="KINTER">     0</i>
   <i name="CSHIFT">      0.10000000</i>
   <i name="OMEGAMAX">     -1.00000000</i>
   <i name="DEG_THRESHOLD">      0.00200000</i>
  </separator>
  <separator name="orbital magnetization" >
   <i type="logical" name="NUCIND"> F  </i>
   <v name="MAGPOS">      0.00000000      0.00000000      0.00000000</v>
   <i type="logical" name="LNICSALL"> T  </i>
   <i type="logical" name="ORBITALMAG"> F  </i>
   <i type="logical" name="LMAGBLOCH"> F  </i>
   <i type="logical" name="LCHIMAG"> F  </i>
   <i type="logical" name="LGAUGE"> T  </i>
   <i type="int" name="MAGATOM">     0</i>
   <v name="MAGDIPOL">      0.00000000      0.00000000      0.00000000</v>
   <v name="AVECCONST">      0.00000000      0.00000000      0.00000000</v>
  </separator>
  <separator name="response functions" >
   <i type="logical" name="LADDER"> F  </i>
   <i type="logical" name="LHARTREE"> T  </i>
   <i type="int" name="IBSE">     0</i>
   <i type="logical" name="LTCTE"> F  </i>
   <i type="logical" name="LTETE"> F  </i>
   <i type="logical" name="LTRIPLET"> F  </i>
   <i type="logical" name="LFXCEPS"> F  </i>
   <i type="logical" name="L2ORDER"> F  </i>
   <i type="logical" name="LUSEW"> F  </i>
   <i name="ENCUTGW">     -2.00000000</i>
   <i name="ENCUTGWSOFT">     -2.00000000</i>
   <i name="ENCUTLF">     -1.00000000</i>
   <i type="int" name="LMAXMP2">    -1</i>
   <i name="SCISSOR">      0.00000000</i>
   <i type="int" name="NOMEGA">     0</i>
   <i type="int" name="NOMEGAR">     0</i>
   <i type="int" name="NBANDSGW">    -1</i>
   <i type="int" name="NBANDSO">    -1</i>
   <i type="int" name="NBANDSV">    -1</i>
   <i type="int" name="NELM">     1</i>
   <i type="int" name="DIM">     3</i>
   <i type="int" name="ANTIRES">     0</i>
   <i name="OMEGAMAX">    -30.00000000</i>
   <i name="OMEGATL">   -200.00000000</i>
   <i type="int" name="OMEGAGRID">     0</i>
   <i name="CSHIFT">     -0.10000000</i>
   <i type="logical" name="SELFENERGY"> F  </i>
   <i type="logical" name="LSPECTRAL"> F  </i>
   <i type="logical" name="ODDONLYGW"> F  </i>
   <i type="logical" name="EVENONLYGW"> F  </i>
   <i type="int" name="NKREDLFX">     1</i>
   <i type="int" name="NKREDLFY">     1</i>
   <i type="int" name="NKREDLFZ">     1</i>
   <i type="int" name="MAXMEM">  1800</i>
   <i type="int" name="TELESCOPE">     0</i>
  </separator>
 </parameters>
 <atominfo>
  <atoms>       1 </atoms>
  <types>       1 </types>
  <array name="atoms" >
   <dimension dim="1">ion</dimension>
   <field type="string">element</field>
   <field type="int">atomtype</field>
   <set>
    <rc><c>Al</c><c>   1</c></rc>
   </set>
  </array>
  <array name="atomtypes" >
   <dimension dim="1">type</dimension>
   <field type="int">atomspertype</field>
   <field type="string">element</field>
   <field>mass</field>
   <field>valence</field>
   <field type="string">pseudopotential</field>
   <set>
    <rc><c>   1</c><c>Al</c><c>     26.98200000</c><c>      3.00000000</c><c>  PAW Al                                </c></rc>
   </set>
  </array>
 </atominfo>
 <structure name="initialpos" >
  <crystal>
   <varray name="basis" >
    <v>       0.00000000       2.02500000       2.02500000 </v>
    <v>       2.02500000       0.00000000       2.02500000 </v>
    <v>       2.02500000       2.02500000       0.00000000 </v>
   </varray>
   <i name="volume">     16.60753125 </i>
   <varray name="rec_basis" >
    <v>      -0.24691358       0.24691358       0.24691358 </v>
    <v>       0.24691358      -0.24691358       0.24691358 </v>
    <v>       0.24691358       0.24691358      -0.24691358 </v>
   </varray>
  </crystal>
  <varray name="positions" >
   <v>       0.00000000       0.00000000       0.00000000 </v>
  </varray>
 </structure>
 <calculation>
  <scstep>
   <time name="dav">    0.70    0.70</time>
   <time name="total">    0.73    0.73</time>
   <energy>
    <i name="alphaZ">     -0.15332662 </i>
    <i name="ewald">    -73.35670894 </i>
    <i name="hartreedc">     -0.10460796 </i>
    <i name="XCdc">    -26.29585808 </i>
    <i name="pawpsdc">     35.89616071 </i>
    <i name="pawaedc">     -3.86303028 </i>
    <i name="eentropy">     -0.00035203 </i>
    <i name="bandstr">     11.53072648 </i>
    <i name="atom">     53.68800704 </i>
    <i name="e_fr_energy">     -2.65898968 </i>
    <i name="e_wo_entrp">     -2.65863765 </i>
    <i name="e_0_energy">     -2.65887233 </i>
   </energy>
  </scstep>
  <scstep>
   <time name="dav">    0.77    0.78</time>
   <time name="total">    0.79    0.80</time>
   <energy>
    <i name="e_fr_energy">     -3.39687105 </i>
    <i name="e_wo_entrp">     -3.39560678 </i>
    <i name="e_0_energy">     -3.39644963 </i>
   </energy>
  </scstep>
  <scstep>
   <time name="dav">    0.80    0.80</time>
   <time name="total">    0.82    0.82</time>
   <energy>
    <i name="e_fr_energy">     -3.40079008 </i>
    <i name="e_wo_entrp">     -3.39947960 </i>
    <i name="e_0_energy">     -3.40035326 </i>
   </energy>
  </scstep>
  <scstep>
   <time name="dav">    0.80    0.80</time>
   <time name="total">    0.81    0.82</time>
   <energy>
    <i name="e_fr_energy">     -3.40079404 </i>
    <i name="e_wo_entrp">     -3.39948345 </i>
    <i name="e_0_energy">     -3.40035718 </i>
   </energy>
  </scstep>
  <scstep>
   <time name="dav">    0.80    0.81</time>
   <time name="total">    0.82    0.83</time>
   <energy>
    <i name="e_fr_energy">     -3.40079405 </i>
    <i name="e_wo_entrp">     -3.39948346 </i>
    <i name="e_0_energy">     -3.40035719 </i>
   </energy>
  </scstep>
  <scstep>
   <time name="dav">    0.77    0.78</time>
   <time name="total">    0.79    0.80</time>
   <energy>
    <i name="alphaZ">     -0.15332662 </i>
    <i name="ewald">    -73.35670894 </i>
    <i name="hartreedc">     -0.10460796 </i>
    <i name="XCdc">    -26.29585808 </i>
    <i name="pawpsdc">     35.89616071 </i>
    <i name="pawaedc">     -3.86303028 </i>
    <i name="eentropy">     -0.00131060 </i>
    <i name="bandstr">     10.78988067 </i>
    <i name="atom">     53.68800704 </i>
    <i name="e_fr_energy">     -3.40079405 </i>
    <i name="e_wo_entrp">     -3.39948346 </i>
    <i name="e_0_energy">     -3.40035719 </i>
   </energy>
  </scstep>
  <structure>
   <crystal>
    <varray name="basis" >
     <v>       0.00000000       2.02500000       2.02500000 </v>
     <v>       2.02500000       0.00000000       2.02500000 </v>
     <v>       2.02500000       2.02500000       0.00000000 </v>
    </varray>
    <i name="volume">     16.60753125 </i>
    <varray name="rec_basis" >
     <v>      -0.24691358       0.24691358       0.24691358 </v>
     <v>       0.24691358      -0.24691358       0.24691358 </v>
     <v>       0.24691358       0.24691358      -0.24691358 </v>
    </varray>
   </crystal>
   <varray name="positions" >
    <v>       0.00000000       0.00000000       0.00000000 </v>
   </varray>
  </structure>
  <varray name="forces" >
   <v>       0.00000000       0.00000000       0.00000000 </v>
  </varray>
  <varray name="stress" >
   <v>     -25.13542865       0.00000000       0.00000000 </v>
   <v>       0.00000000     -25.13542865       0.00000000 </v>
   <v>       0.00000000       0.00000000     -25.13542865 </v>
  </varray>
  <energy>
   <i name="e_fr_energy">     -3.40079405 </i>
   <i name="e_wo_entrp">     -3.40035719 </i>
   <i name="e_0_energy">     -0.00131060 </i>
  </energy>
  <time name="totalsc">    5.13    5.16</time>
  <eigenvalues>
   <array>
    <dimension dim="1">band</dimension>
    <dimension dim="2">kpoint</dimension>
    <dimension dim="3">spin</dimension>
    <field>eigene</field>
    <field>occ</field>
    <set>
     <set comment="spin 1">
      <set comment="kpoint 1">
       <r>    3.3507    1.0000 </r>
       <r>    3.5263    1.0000 </r>
       <r>   19.1912    0.0000 </r>
       <r>   19.1913    0.0000 </r>
       <r>   19.3861    0.0000 </r>
      </set>
      <set comment="kpoint 2">
       <r>    3.3527    1.0000 </r>
       <r>    3.5285    1.0000 </r>
       <r>   19.0462    0.0000 </r>
       <r>   19.0676    0.0000 </r>
       <r>   19.4861    0.0000 </r>
      </set>
      <set comment="kpoint 3">
       <r>    3.3589    1.0000 </r>
       <r>    3.5350    1.0000 </r>
       <r>   18.7999    0.0000 </r>
       <r>   18.8836    0.0000 </r>
       <r>   19.5995    0.0000 </r>
      </set>
      <set comment="kpoint 4">
       <r>    3.3692    1.0000 </r>
       <r>    3.5459    1.0000 </r>
       <r>   18.5175    0.0000 </r>
       <r>   18.6966    0.0000 </r>
       <r>   19.6679    0.0000 </r>
      </set>
      <set comment="kpoint 5">
       <r>    3.3836    1.0000 </r>
       <r>    3.5611    1.0000 </r>
       <r>   18.2114    0.0000 </r>
       <r>   18.5116    0.0000 </r>
       <r>   19.6897    0.0000 </r>
      </set>
      <set comment="kpoint 6">
       <r>    3.4021    1.0000 </r>
       <r>    3.5807    1.0000 </r>
       <r>   17.8886    0.0000 </r>
       <r>   18.3297    0.0000 </r>
       <r>   19.6710    0.0000 </r>
      </set>
      <set comment="kpoint 7">
       <r>    3.4248    1.0000 </r>
       <r>    3.6046    1.0000 </r>
       <r>   17.5539    0.0000 </r>
       <r>   18.1513    0.0000 </r>
       <r>   19.6193    0.0000 </r>
      </set>
      <set comment="kpoint 8">
       <r>    3.4516    1.0000 </r>
       <r>    3.6328    1.0000 </r>
       <r>   17.2111    0.0000 </r>
       <r>   17.9766    0.0000 </r>
       <r>   19.5425    0.0000 </r>
      </set>
      <set comment="kpoint 9">
       <r>    3.4825    1.0000 </r>
       <r>    3.6645    1.0000 </r>
       <r>   16.8621    0.0000 </r>
       <r>   17.8053    0.0000 </r>
       <r>   19.4451    0.0000 </r>
      </set>
      <set comment="kpoint 10">
       <r>    3.5175    1.0000 </r>
       <r>    3.7014    1.0000 </r>
       <r>   16.5101    0.0000 </r>
       <r>   17.6382    0.0000 </r>
       <r>   19.3359    0.0000 </r>
      </set>
      <set comment="kpoint 11">
       <r>    3.5566    1.0000 </r>
       <r>    3.7426    1.0000 </r>
       <r>   16.1590    0.0000 </r>
       <r>   17.4749    0.0000 </r>
       <r>   19.2182    0.0000 </r>
      </set>
      <set comment="kpoint 12">
       <r>    3.5998    1.0000 </r>
       <r>    3.7876    1.0000 </r>
       <r>   15.8035    0.0000 </r>
       <r>   17.3155    0.0000 </r>
       <r>   19.0920    0.0000 </r>
      </set>
      <set comment="kpoint 13">
       <r>    3.6472    1.0000 </r>
       <r>    3.8373    1.0000 </r>
       <r>   15.4482    0.0000 </r>
       <r>   17.1599    0.0000 </r>
       <r>   18.9619    0.0000 </r>
      </set>
      <set comment="kpoint 14">
       <r>    3.6986    1.0000 </r>
       <r>    3.8912    1.0000 </r>
       <r>   15.0936    0.0000 </r>
       <r>   17.0081    0.0000 </r>
       <r>   18.8291    0.0000 </r>
      </set>
      <set comment="kpoint 15">
       <r>    3.7543    1.0000 </r>
       <r>    3.9495    1.0000 </r>
       <r>   14.7402    0.0000 </r>
       <r>   16.8603    0.0000 </r>
       <r>   18.6950    0.0000 </r>
      </set>
      <set comment="kpoint 16">
       <r>    3.8139    1.0000 </r>
       <r>    4.0120    1.0000 </r>
       <r>   14.3884    0.0000 </r>
       <r>   16.7163    0.0000 </r>
       <r>   18.5605    0.0000 </r>
      </set>
      <set comment="kpoint 17">
       <r>    3.8777    1.0000 </r>
       <r>    4.0785    1.0000 </r>
       <r>   14.0387    0.0000 </r>
       <r>   16.5761    0.0000 </r>
       <r>   18.4263    0.0000 </r>
      </set>
      <set comment="kpoint 18">
       <r>    3.9455    1.0000 </r>
       <r>    4.1493    1.0000 </r>
       <r>   13.6914    0.0000 </r>
       <r>   16.4399    0.0000 </r>
       <r>   18.2931    0.0000 </r>
      </set>
      <set comment="kpoint 19">
       <r>    4.0174    1.0000 </r>
       <r>    4.2242    1.0000 </r>
       <r>   13.3466    0.0000 </r>
       <r>   16.3075    0.0000 </r>
       <r>   18.1613    0.0000 </r>
      </set>
      <set comment="kpoint 20">
       <r>    4.0934    1.0000 </r>
       <r>    4.3033    1.0000 </r>
       <r>   13.0047    0.0000 </r>
       <r>   16.1819    0.0000 </r>
       <r>   18.0341    0.0000 </r>
      </set>
      <set comment="kpoint 21">
       <r>    4.1735    1.0000 </r>
       <r>    4.3863    1.0000 </r>
       <r>   12.6657    0.0000 </r>
       <r>   16.0571    0.0000 </r>
       <r>   17.9064    0.0000 </r>
      </set>
      <set comment="kpoint 22">
       <r>    4.2575    1.0000 </r>
       <r>    4.4732    1.0000 </r>
       <r>   12.3300    0.0000 </r>
       <r>   15.9357    0.0000 </r>
       <r>   17.7804    0.0000 </r>
      </set>
      <set comment="kpoint 23">
       <r>    4.3456    1.0000 </r>
       <r>    4.5642    1.0000 </r>
       <r>   11.9977    0.0000 </r>
       <r>   15.8186    0.0000 </r>
       <r>   17.6579    0.0000 </r>
      </set>
      <set comment="kpoint 24">
       <r>    4.4377    1.0000 </r>
       <r>    4.6590    1.0000 </r>
       <r>   11.6690    0.0000 </r>
       <r>   15.7054    0.0000 </r>
       <r>   17.5383    0.0000 </r>
      </set>
      <set comment="kpoint 25">
       <r>    4.5338    1.0000 </r>
       <r>    4.7577    1.0000 </r>
       <r>   11.3440    0.0000 </r>
       <r>   15.5960    0.0000 </r>
       <r>   17.4218    0.0000 </r>
      </set>
      <set comment="kpoint 26">
       <r>    4.6339    1.0000 </r>
       <r>    4.8600    1.0000 </r>
       <r>   11.0230    0.0000 </r>
       <r>   15.4905    0.0000 </r>
       <r>   17.3085    0.0000 </r>
      </set>
      <set comment="kpoint 27">
       <r>    4.7382    1.0000 </r>
       <r>    4.9661    1.0000 </r>
       <r>   10.7075    0.0000 </r>
       <r>   15.3891    0.0000 </r>
       <r>   17.1992    0.0000 </r>
      </set>
      <set comment="kpoint 28">
       <r>    4.8458    1.0000 </r>
       <r>    5.0754    1.0000 </r>
       <r>   10.3949    0.0000 </r>
       <r>   15.2913    0.0000 </r>
       <r>   17.0925    0.0000 </r>
      </set>
      <set comment="kpoint 29">
       <r>    4.9573    1.0000 </r>
       <r>    5.1881    1.0000 </r>
       <r>   10.0871    0.0000 </r>
       <r>   15.1973    0.0000 </r>
       <r>   16.9894    0.0000 </r>
      </set>
      <set comment="kpoint 30">
       <r>    5.0724    1.0000 </r>
       <r>    5.3030    1.0000 </r>
       <r>    9.7843    0.0000 </r>
       <r>   15.1069    0.0000 </r>
       <r>   16.8893    0.0000 </r>
      </set>
      <set comment="kpoint 31">
       <r>    5.1908    1.0000 </r>
       <r>    5.4215    1.0000 </r>
       <r>    9.4873    0.0000 </r>
       <r>   15.0207    0.0000 </r>
       <r>   16.7933    0.0000 </r>
      </set>
      <set comment="kpoint 32">
       <r>    5.3119    1.0000 </r>
       <r>    5.5422    1.0000 </r>
       <r>    9.1957    0.0000 </r>
       <r>   14.9382    0.0000 </r>
       <r>   16.6994    0.0000 </r>
      </set>
      <set comment="kpoint 33">
       <r>    5.4359    1.0000 </r>
       <r>    5.6649    1.0000 </r>
       <r>    8.9127    0.0000 </r>
       <r>   14.8607    0.0000 </r>
       <r>   16.6108    0.0000 </r>
      </set>
      <set comment="kpoint 34">
       <r>    5.5611    1.0000 </r>
       <r>    5.7888    1.0000 </r>
       <r>    8.6388    0.0000 </r>
       <r>   14.7859    0.0000 </r>
       <r>   16.5260    0.0000 </r>
      </set>
      <set comment="kpoint 35">
       <r>    5.6859    1.0000 </r>
       <r>    5.9132    1.0000 </r>
       <r>    8.3765    0.0000 </r>
       <r>   14.7149    0.0000 </r>
       <r>   16.4451    0.0000 </r>
      </set>
      <set comment="kpoint 36">
       <r>    5.8066    1.0000 </r>
       <r>    6.0378    1.0000 </r>
       <r>    8.1300    0.0000 </r>
       <r>   14.6478    0.0000 </r>
       <r>   16.3679    0.0000 </r>
      </set>
      <set comment="kpoint 37">
       <r>    5.9161    1.0000 </r>
       <r>    6.1629    1.0000 </r>
       <r>    7.9060    0.0000 </r>
       <r>   14.5845    0.0000 </r>
       <r>   16.2946    0.0000 </r>
      </set>
      <set comment="kpoint 38">
       <r>    6.0016    1.0000 </r>
       <r>    6.2905    1.0000 </r>
       <r>    7.7152   -0.0001 </r>
       <r>   14.5250    0.0000 </r>
       <r>   16.2252    0.0000 </r>
      </set>
      <set comment="kpoint 39">
       <r>    6.0440    1.0000 </r>
       <r>    6.4243    1.0000 </r>
       <r>    7.5733   -0.0035 </r>
       <r>   14.4694    0.0000 </r>
       <r>   16.1596    0.0000 </r>
      </set>
      <set comment="kpoint 40">
       <r>    6.0249    1.0000 </r>
       <r>    6.5666    1.0003 </r>
       <r>    7.4959   -0.0128 </r>
       <r>   14.4176    0.0000 </r>
       <r>   16.0979    0.0000 </r>
      </set>
      <set comment="kpoint 41">
       <r>    6.0249    1.0000 </r>
       <r>    6.5666    1.0003 </r>
       <r>    7.4959   -0.0128 </r>
       <r>   14.4176    0.0000 </r>
       <r>   16.0979    0.0000 </r>
      </set>
      <set comment="kpoint 42">
       <r>    6.0256    1.0000 </r>
       <r>    6.5673    1.0003 </r>
       <r>    7.4966   -0.0127 </r>
       <r>   14.3928    0.0000 </r>
       <r>   16.1239    0.0000 </r>
      </set>
      <set comment="kpoint 43">
       <r>    6.0277    1.0000 </r>
       <r>    6.5692    1.0003 </r>
       <r>    7.4986   -0.0123 </r>
       <r>   14.3225    0.0000 </r>
       <r>   16.1976    0.0000 </r>
      </set>
      <set comment="kpoint 44">
       <r>    6.0311    1.0000 </r>
       <r>    6.5724    1.0003 </r>
       <r>    7.5020   -0.0117 </r>
       <r>   14.2162    0.0000 </r>
       <r>   16.3095    0.0000 </r>
      </set>
      <set comment="kpoint 45">
       <r>    6.0361    1.0000 </r>
       <r>    6.5771    1.0004 </r>
       <r>    7.5069   -0.0109 </r>
       <r>   14.0843    0.0000 </r>
       <r>   16.4501    0.0000 </r>
      </set>
      <set comment="kpoint 46">
       <r>    6.0422    1.0000 </r>
       <r>    6.5828    1.0004 </r>
       <r>    7.5130   -0.0100 </r>
       <r>   13.9349    0.0000 </r>
       <r>   16.6096    0.0000 </r>
      </set>
      <set comment="kpoint 47">
       <r>    6.0497    1.0000 </r>
       <r>    6.5899    1.0005 </r>
       <r>    7.5204   -0.0089 </r>
       <r>   13.7738    0.0000 </r>
       <r>   16.7831    0.0000 </r>
      </set>
      <set comment="kpoint 48">
       <r>    6.0586    1.0000 </r>
       <r>    6.5982    1.0006 </r>
       <r>    7.5292   -0.0077 </r>
       <r>   13.6049    0.0000 </r>
       <r>   16.9667    0.0000 </r>
      </set>
      <set comment="kpoint 49">
       <r>    6.0688    1.0000 </r>
       <r>    6.6077    1.0007 </r>
       <r>    7.5393   -0.0065 </r>
       <r>   13.4308    0.0000 </r>
       <r>   17.1577    0.0000 </r>
      </set>
      <set comment="kpoint 50">
       <r>    6.0804    1.0000 </r>
       <r>    6.6185    1.0010 </r>
       <r>    7.5507   -0.0054 </r>
       <r>   13.2532    0.0000 </r>
       <r>   17.3544    0.0000 </r>
      </set>
      <set comment="kpoint 51">
       <r>    6.0933    1.0000 </r>
       <r>    6.6306    1.0013 </r>
       <r>    7.5635   -0.0043 </r>
       <r>   13.0734    0.0000 </r>
       <r>   17.5556    0.0000 </r>
      </set>
      <set comment="kpoint 52">
       <r>    6.1076    1.0000 </r>
       <r>    6.6438    1.0017 </r>
       <r>    7.5775   -0.0033 </r>
       <r>   12.8923    0.0000 </r>
       <r>   17.7603    0.0000 </r>
      </set>
      <set comment="kpoint 53">
       <r>    6.1233    1.0000 </r>
       <r>    6.6583    1.0023 </r>
       <r>    7.5929   -0.0024 </r>
       <r>   12.7105    0.0000 </r>
       <r>   17.9681    0.0000 </r>
      </set>
      <set comment="kpoint 54">
       <r>    6.1404    1.0000 </r>
       <r>    6.6740    1.0031 </r>
       <r>    7.6095   -0.0017 </r>
       <r>   12.5284    0.0000 </r>
       <r>   18.1783    0.0000 </r>
      </set>
      <set comment="kpoint 55">
       <r>    6.1588    1.0000 </r>
       <r>    6.6909    1.0043 </r>
       <r>    7.6274   -0.0012 </r>
       <r>   12.3465    0.0000 </r>
       <r>   18.3906    0.0000 </r>
      </set>
      <set comment="kpoint 56">
       <r>    6.1786    1.0000 </r>
       <r>    6.7089    1.0059 </r>
       <r>    7.6465   -0.0007 </r>
       <r>   12.1651    0.0000 </r>
       <r>   18.6048    0.0000 </r>
      </set>
      <set comment="kpoint 57">
       <r>    6.1997    1.0000 </r>
       <r>    6.7281    1.0081 </r>
       <r>    7.6668   -0.0005 </r>
       <r>   11.9843    0.0000 </r>
       <r>   18.8205    0.0000 </r>
      </set>
      <set comment="kpoint 58">
       <r>    6.2222    1.0000 </r>
       <r>    6.7484    1.0111 </r>
       <r>    7.6883   -0.0003 </r>
       <r>   11.8044    0.0000 </r>
       <r>   19.0376    0.0000 </r>
      </set>
      <set comment="kpoint 59">
       <r>    6.2461    1.0000 </r>
       <r>    6.7697    1.0149 </r>
       <r>    7.7110   -0.0001 </r>
       <r>   11.6257    0.0000 </r>
       <r>   19.2559    0.0000 </r>
      </set>
      <set comment="kpoint 60">
       <r>    6.2710    1.0000 </r>
       <r>    6.7919    1.0196 </r>
       <r>    7.7344   -0.0001 </r>
       <r>   11.4479    0.0000 </r>
       <r>   19.4751    0.0000 </r>
      </set>
      <set comment="kpoint 61">
       <r>    6.2976    1.0000 </r>
       <r>    6.8152    1.0249 </r>
       <r>    7.7592    0.0000 </r>
       <r>   11.2719    0.0000 </r>
       <r>   19.6953    0.0000 </r>
      </set>
      <set comment="kpoint 62">
       <r>    6.3256    1.0000 </r>
       <r>    6.8396    1.0303 </r>
       <r>    7.7852    0.0000 </r>
       <r>   11.0978    0.0000 </r>
       <r>   19.9164    0.0000 </r>
      </set>
      <set comment="kpoint 63">
       <r>    6.3550    1.0000 </r>
       <r>    6.8647    1.0344 </r>
       <r>    7.8119    0.0000 </r>
       <r>   10.9254    0.0000 </r>
       <r>   20.1379    0.0000 </r>
      </set>
      <set comment="kpoint 64">
       <r>    6.3857    1.0000 </r>
       <r>    6.8905    1.0352 </r>
       <r>    7.8395    0.0000 </r>
       <r>   10.7551    0.0000 </r>
       <r>   20.3599    0.0000 </r>
      </set>
      <set comment="kpoint 65">
       <r>    6.4177    1.0000 </r>
       <r>    6.9169    1.0296 </r>
       <r>    7.8677    0.0000 </r>
       <r>   10.5872    0.0000 </r>
       <r>   20.5821    0.0000 </r>
      </set>
      <set comment="kpoint 66">
       <r>    6.4512    1.0000 </r>
       <r>    6.9439    1.0141 </r>
       <r>    7.8965    0.0000 </r>
       <r>   10.4221    0.0000 </r>
       <r>   20.8044    0.0000 </r>
      </set>
      <set comment="kpoint 67">
       <r>    6.4855    1.0000 </r>
       <r>    6.9708    0.9852 </r>
       <r>    7.9254    0.0000 </r>
       <r>   10.2592    0.0000 </r>
       <r>   21.0223    0.0000 </r>
      </set>
      <set comment="kpoint 68">
       <r>    6.5217    1.0001 </r>
       <r>    6.9981    0.9392 </r>
       <r>    7.9549    0.0000 </r>
       <r>   10.1013    0.0000 </r>
       <r>   21.2449    0.0000 </r>
      </set>
      <set comment="kpoint 69">
       <r>    6.5592    1.0002 </r>
       <r>    7.0251    0.8754 </r>
       <r>    7.9841    0.0000 </r>
       <r>    9.9470    0.0000 </r>
       <r>   21.4661    0.0000 </r>
      </set>
      <set comment="kpoint 70">
       <r>    6.5980    1.0006 </r>
       <r>    7.0516    0.7955 </r>
       <r>    8.0126    0.0000 </r>
       <r>    9.7978    0.0000 </r>
       <r>   21.6864    0.0000 </r>
      </set>
      <set comment="kpoint 71">
       <r>    6.6383    1.0015 </r>
       <r>    7.0770    0.7046 </r>
       <r>    8.0400    0.0000 </r>
       <r>    9.6546    0.0000 </r>
       <r>   21.9055    0.0000 </r>
      </set>
      <set comment="kpoint 72">
       <r>    6.6799    1.0035 </r>
       <r>    7.1007    0.6106 </r>
       <r>    8.0657    0.0000 </r>
       <r>    9.5188    0.0000 </r>
       <r>   22.1228    0.0000 </r>
      </set>
      <set comment="kpoint 73">
       <r>    6.7229    1.0075 </r>
       <r>    7.1218    0.5224 </r>
       <r>    8.0887    0.0000 </r>
       <r>    9.3921    0.0000 </r>
       <r>   22.3378    0.0000 </r>
      </set>
      <set comment="kpoint 74">
       <r>    6.7672    1.0145 </r>
       <r>    7.1392    0.4489 </r>
       <r>    8.1080    0.0000 </r>
       <r>    9.2767    0.0000 </r>
       <r>   22.5500    0.0000 </r>
      </set>
      <set comment="kpoint 75">
       <r>    6.8129    1.0244 </r>
       <r>    7.1514    0.3980 </r>
       <r>    8.1226    0.0000 </r>
       <r>    9.1751    0.0000 </r>
       <r>   22.7584    0.0000 </r>
      </set>
      <set comment="kpoint 76">
       <r>    6.8600    1.0338 </r>
       <r>    7.1566    0.3766 </r>
       <r>    8.1316    0.0000 </r>
       <r>    9.0900    0.0000 </r>
       <r>   22.9622    0.0000 </r>
      </set>
      <set comment="kpoint 77">
       <r>    6.9085    1.0323 </r>
       <r>    7.1526    0.3930 </r>
       <r>    8.1347    0.0000 </r>
       <r>    9.0239    0.0000 </r>
       <r>   23.1599    0.0000 </r>
      </set>
      <set comment="kpoint 78">
       <r>    6.9583    1.0004 </r>
       <r>    7.1369    0.4585 </r>
       <r>    8.1333    0.0000 </r>
       <r>    8.9780    0.0000 </r>
       <r>   23.3505    0.0000 </r>
      </set>
      <set comment="kpoint 79">
       <r>    7.0095    0.9145 </r>
       <r>    7.1073    0.5834 </r>
       <r>    8.1298    0.0000 </r>
       <r>    8.9520    0.0000 </r>
       <r>   23.5378    0.0000 </r>
      </set>
      <set comment="kpoint 80">
       <r>    7.0621    0.7597 </r>
       <r>    7.0621    0.7597 </r>
       <r>    8.1278    0.0000 </r>
       <r>    8.9439    0.0000 </r>
       <r>   23.6963    0.0000 </r>
      </set>
      <set comment="kpoint 81">
       <r>    7.0621    0.7597 </r>
       <r>    7.0621    0.7597 </r>
       <r>    8.1278    0.0000 </r>
       <r>    8.9439    0.0000 </r>
       <r>   23.6968    0.0000 </r>
      </set>
      <set comment="kpoint 82">
       <r>    6.8355    1.0295 </r>
       <r>    7.1754    0.3021 </r>
       <r>    8.2087    0.0000 </r>
       <r>    9.0028    0.0000 </r>
       <r>   23.3918    0.0000 </r>
      </set>
      <set comment="kpoint 83">
       <r>    6.4546    1.0000 </r>
       <r>    7.3024   -0.0071 </r>
       <r>    8.4009    0.0000 </r>
       <r>    9.1441    0.0000 </r>
       <r>   23.0938    0.0000 </r>
      </set>
      <set comment="kpoint 84">
       <r>    6.0159    1.0000 </r>
       <r>    7.4431   -0.0240 </r>
       <r>    8.6304    0.0000 </r>
       <r>    9.3453    0.0000 </r>
       <r>   22.8103    0.0000 </r>
      </set>
      <set comment="kpoint 85">
       <r>    5.5595    1.0000 </r>
       <r>    7.5978   -0.0022 </r>
       <r>    8.8645    0.0000 </r>
       <r>    9.6004    0.0000 </r>
       <r>   22.5420    0.0000 </r>
      </set>
      <set comment="kpoint 86">
       <r>    5.0999    1.0000 </r>
       <r>    7.7659    0.0000 </r>
       <r>    9.0915    0.0000 </r>
       <r>    9.9027    0.0000 </r>
       <r>   22.2853    0.0000 </r>
      </set>
      <set comment="kpoint 87">
       <r>    4.6447    1.0000 </r>
       <r>    7.9477    0.0000 </r>
       <r>    9.3155    0.0000 </r>
       <r>   10.2435    0.0000 </r>
       <r>   22.0411    0.0000 </r>
      </set>
      <set comment="kpoint 88">
       <r>    4.1972    1.0000 </r>
       <r>    8.1433    0.0000 </r>
       <r>    9.5407    0.0000 </r>
       <r>   10.6145    0.0000 </r>
       <r>   21.8099    0.0000 </r>
      </set>
      <set comment="kpoint 89">
       <r>    3.7593    1.0000 </r>
       <r>    8.3526    0.0000 </r>
       <r>    9.7708    0.0000 </r>
       <r>   11.0096    0.0000 </r>
       <r>   21.5916    0.0000 </r>
      </set>
      <set comment="kpoint 90">
       <r>    3.3322    1.0000 </r>
       <r>    8.5756    0.0000 </r>
       <r>   10.0087    0.0000 </r>
       <r>   11.4249    0.0000 </r>
       <r>   21.3866    0.0000 </r>
      </set>
      <set comment="kpoint 91">
       <r>    2.9167    1.0000 </r>
       <r>    8.8124    0.0000 </r>
       <r>   10.2557    0.0000 </r>
       <r>   11.8576    0.0000 </r>
       <r>   21.1913    0.0000 </r>
      </set>
      <set comment="kpoint 92">
       <r>    2.5130    1.0000 </r>
       <r>    9.0629    0.0000 </r>
       <r>   10.5131    0.0000 </r>
       <r>   12.3064    0.0000 </r>
       <r>   21.0124    0.0000 </r>
      </set>
      <set comment="kpoint 93">
       <r>    2.1217    1.0000 </r>
       <r>    9.3269    0.0000 </r>
       <r>   10.7809    0.0000 </r>
       <r>   12.7686    0.0000 </r>
       <r>   20.8463    0.0000 </r>
      </set>
      <set comment="kpoint 94">
       <r>    1.7436    1.0000 </r>
       <r>    9.6048    0.0000 </r>
       <r>   11.0598    0.0000 </r>
       <r>   13.2458    0.0000 </r>
       <r>   20.6936    0.0000 </r>
      </set>
      <set comment="kpoint 95">
       <r>    1.3786    1.0000 </r>
       <r>    9.8965    0.0000 </r>
       <r>   11.3497    0.0000 </r>
       <r>   13.7363    0.0000 </r>
       <r>   20.5541    0.0000 </r>
      </set>
      <set comment="kpoint 96">
       <r>    1.0268    1.0000 </r>
       <r>   10.2020    0.0000 </r>
       <r>   11.6505    0.0000 </r>
       <r>   14.2395    0.0000 </r>
       <r>   20.4277    0.0000 </r>
      </set>
      <set comment="kpoint 97">
       <r>    0.6885    1.0000 </r>
       <r>   10.5211    0.0000 </r>
       <r>   11.9620    0.0000 </r>
       <r>   14.7550    0.0000 </r>
       <r>   20.3144    0.0000 </r>
      </set>
      <set comment="kpoint 98">
       <r>    0.3635    1.0000 </r>
       <r>   10.8539    0.0000 </r>
       <r>   12.2841    0.0000 </r>
       <r>   15.2817    0.0000 </r>
       <r>   20.2141    0.0000 </r>
      </set>
      <set comment="kpoint 99">
       <r>    0.0524    1.0000 </r>
       <r>   11.2004    0.0000 </r>
       <r>   12.6166    0.0000 </r>
       <r>   15.8204    0.0000 </r>
       <r>   20.1269    0.0000 </r>
      </set>
      <set comment="kpoint 100">
       <r>   -0.2450    1.0000 </r>
       <r>   11.5606    0.0000 </r>
       <r>   12.9591    0.0000 </r>
       <r>   16.3700    0.0000 </r>
       <r>   20.0525    0.0000 </r>
      </set>
      <set comment="kpoint 101">
       <r>   -0.5283    1.0000 </r>
       <r>   11.9343    0.0000 </r>
       <r>   13.3114    0.0000 </r>
       <r>   16.9301    0.0000 </r>
       <r>   19.9909    0.0000 </r>
      </set>
      <set comment="kpoint 102">
       <r>   -0.7978    1.0000 </r>
       <r>   12.3215    0.0000 </r>
       <r>   13.6729    0.0000 </r>
       <r>   17.5000    0.0000 </r>
       <r>   19.9421    0.0000 </r>
      </set>
      <set comment="kpoint 103">
       <r>   -1.0531    1.0000 </r>
       <r>   12.7222    0.0000 </r>
       <r>   14.0433    0.0000 </r>
       <r>   18.0787    0.0000 </r>
       <r>   19.9059    0.0000 </r>
      </set>
      <set comment="kpoint 104">
       <r>   -1.2943    1.0000 </r>
       <r>   13.1362    0.0000 </r>
       <r>   14.4222    0.0000 </r>
       <r>   18.6651    0.0000 </r>
       <r>   19.8820    0.0000 </r>
      </set>
      <set comment="kpoint 105">
       <r>   -1.5213    1.0000 </r>
       <r>   13.5634    0.0000 </r>
       <r>   14.8089    0.0000 </r>
       <r>   19.2568    0.0000 </r>
       <r>   19.8704    0.0000 </r>
      </set>
      <set comment="kpoint 106">
       <r>   -1.7339    1.0000 </r>
       <r>   14.0036    0.0000 </r>
       <r>   15.2029    0.0000 </r>
       <r>   19.8493    0.0000 </r>
       <r>   19.8708    0.0000 </r>
      </set>
      <set comment="kpoint 107">
       <r>   -1.9323    1.0000 </r>
       <r>   14.4533    0.0000 </r>
       <r>   15.6023    0.0000 </r>
       <r>   19.8802    0.0000 </r>
       <r>   20.4284    0.0000 </r>
      </set>
      <set comment="kpoint 108">
       <r>   -2.1161    1.0000 </r>
       <r>   14.9185    0.0000 </r>
       <r>   16.0089    0.0000 </r>
       <r>   19.9031    0.0000 </r>
       <r>   20.9627    0.0000 </r>
      </set>
      <set comment="kpoint 109">
       <r>   -2.2854    1.0000 </r>
       <r>   15.3966    0.0000 </r>
       <r>   16.4233    0.0000 </r>
       <r>   19.9473    0.0000 </r>
       <r>   21.3383    0.0000 </r>
      </set>
      <set comment="kpoint 110">
       <r>   -2.4402    1.0000 </r>
       <r>   15.8837    0.0000 </r>
       <r>   16.8380    0.0000 </r>
       <r>   19.9903    0.0000 </r>
       <r>   21.5060    0.0000 </r>
      </set>
      <set comment="kpoint 111">
       <r>   -2.5804    1.0000 </r>
       <r>   16.3831    0.0000 </r>
       <r>   17.2576    0.0000 </r>
       <r>   20.0429    0.0000 </r>
       <r>   21.5880    0.0000 </r>
      </set>
      <set comment="kpoint 112">
       <r>   -2.7061    1.0000 </r>
       <r>   16.8904    0.0000 </r>
       <r>   17.6775    0.0000 </r>
       <r>   20.1032    0.0000 </r>
       <r>   21.6452    0.0000 </r>
      </set>
      <set comment="kpoint 113">
       <r>   -2.8169    1.0000 </r>
       <r>   17.4076    0.0000 </r>
       <r>   18.0998    0.0000 </r>
       <r>   20.1700    0.0000 </r>
       <r>   21.6934    0.0000 </r>
      </set>
      <set comment="kpoint 114">
       <r>   -2.9131    1.0000 </r>
       <r>   17.9309    0.0000 </r>
       <r>   18.5212    0.0000 </r>
       <r>   20.2408    0.0000 </r>
       <r>   21.7368    0.0000 </r>
      </set>
      <set comment="kpoint 115">
       <r>   -2.9945    1.0000 </r>
       <r>   18.4570    0.0000 </r>
       <r>   18.9392    0.0000 </r>
       <r>   20.3129    0.0000 </r>
       <r>   21.7759    0.0000 </r>
      </set>
      <set comment="kpoint 116">
       <r>   -3.0611    1.0000 </r>
       <r>   18.9811    0.0000 </r>
       <r>   19.3503    0.0000 </r>
       <r>   20.3832    0.0000 </r>
       <r>   21.8103    0.0000 </r>
      </set>
      <set comment="kpoint 117">
       <r>   -3.1129    1.0000 </r>
       <r>   19.5006    0.0000 </r>
       <r>   19.7519    0.0000 </r>
       <r>   20.4472    0.0000 </r>
       <r>   21.8390    0.0000 </r>
      </set>
      <set comment="kpoint 118">
       <r>   -3.1499    1.0000 </r>
       <r>   19.9789    0.0000 </r>
       <r>   20.1197    0.0000 </r>
       <r>   20.4979    0.0000 </r>
       <r>   21.8638    0.0000 </r>
      </set>
      <set comment="kpoint 119">
       <r>   -3.1721    1.0000 </r>
       <r>   20.3704    0.0000 </r>
       <r>   20.4158    0.0000 </r>
       <r>   20.5310    0.0000 </r>
       <r>   21.8893    0.0000 </r>
      </set>
      <set comment="kpoint 120">
       <r>   -3.1795    1.0000 </r>
       <r>   20.5425    0.0000 </r>
       <r>   20.5425    0.0000 </r>
       <r>   20.5425    0.0000 </r>
       <r>   21.8784    0.0000 </r>
      </set>
      <set comment="kpoint 121">
       <r>   -3.1795    1.0000 </r>
       <r>   20.5425    0.0000 </r>
       <r>   20.5425    0.0000 </r>
       <r>   20.5425    0.0000 </r>
       <r>   21.8784    0.0000 </r>
      </set>
      <set comment="kpoint 122">
       <r>   -3.1736    1.0000 </r>
       <r>   20.4402    0.0000 </r>
       <r>   20.4402    0.0000 </r>
       <r>   20.4920    0.0000 </r>
       <r>   21.8645    0.0000 </r>
      </set>
      <set comment="kpoint 123">
       <r>   -3.1558    1.0000 </r>
       <r>   20.1980    0.0000 </r>
       <r>   20.1980    0.0000 </r>
       <r>   20.3496    0.0000 </r>
       <r>   21.8203    0.0000 </r>
      </set>
      <set comment="kpoint 124">
       <r>   -3.1262    1.0000 </r>
       <r>   19.8979    0.0000 </r>
       <r>   19.8979    0.0000 </r>
       <r>   20.1364    0.0000 </r>
       <r>   21.7493    0.0000 </r>
      </set>
      <set comment="kpoint 125">
       <r>   -3.0848    1.0000 </r>
       <r>   19.5759    0.0000 </r>
       <r>   19.5759    0.0000 </r>
       <r>   19.8746    0.0000 </r>
       <r>   21.6516    0.0000 </r>
      </set>
      <set comment="kpoint 126">
       <r>   -3.0314    1.0000 </r>
       <r>   19.2511    0.0000 </r>
       <r>   19.2511    0.0000 </r>
       <r>   19.5828    0.0000 </r>
       <r>   21.5323    0.0000 </r>
      </set>
      <set comment="kpoint 127">
       <r>   -2.9664    1.0000 </r>
       <r>   18.9225    0.0000 </r>
       <r>   18.9225    0.0000 </r>
       <r>   19.2609    0.0000 </r>
       <r>   21.3930    0.0000 </r>
      </set>
      <set comment="kpoint 128">
       <r>   -2.8894    1.0000 </r>
       <r>   18.6048    0.0000 </r>
       <r>   18.6048    0.0000 </r>
       <r>   18.9431    0.0000 </r>
       <r>   21.2370    0.0000 </r>
      </set>
      <set comment="kpoint 129">
       <r>   -2.8007    1.0000 </r>
       <r>   18.2939    0.0000 </r>
       <r>   18.2939    0.0000 </r>
       <r>   18.6226    0.0000 </r>
       <r>   21.0670    0.0000 </r>
      </set>
      <set comment="kpoint 130">
       <r>   -2.7002    1.0000 </r>
       <r>   17.9908    0.0000 </r>
       <r>   17.9908    0.0000 </r>
       <r>   18.3031    0.0000 </r>
       <r>   20.8856    0.0000 </r>
      </set>
      <set comment="kpoint 131">
       <r>   -2.5879    1.0000 </r>
       <r>   17.6961    0.0000 </r>
       <r>   17.6962    0.0000 </r>
       <r>   17.9874    0.0000 </r>
       <r>   20.6951    0.0000 </r>
      </set>
      <set comment="kpoint 132">
       <r>   -2.4638    1.0000 </r>
       <r>   17.4137    0.0000 </r>
       <r>   17.4137    0.0000 </r>
       <r>   17.6782    0.0000 </r>
       <r>   20.4970    0.0000 </r>
      </set>
      <set comment="kpoint 133">
       <r>   -2.3281    1.0000 </r>
       <r>   17.1369    0.0000 </r>
       <r>   17.1369    0.0000 </r>
       <r>   17.3753    0.0000 </r>
       <r>   20.2902    0.0000 </r>
      </set>
      <set comment="kpoint 134">
       <r>   -2.1808    1.0000 </r>
       <r>   16.8697    0.0000 </r>
       <r>   16.8697    0.0000 </r>
       <r>   17.0804    0.0000 </r>
       <r>   20.0588    0.0000 </r>
      </set>
      <set comment="kpoint 135">
       <r>   -2.0219    1.0000 </r>
       <r>   16.6122    0.0000 </r>
       <r>   16.6122    0.0000 </r>
       <r>   16.7944    0.0000 </r>
       <r>   19.6390    0.0000 </r>
      </set>
      <set comment="kpoint 136">
       <r>   -1.8514    1.0000 </r>
       <r>   16.3644    0.0000 </r>
       <r>   16.3645    0.0000 </r>
       <r>   16.5178    0.0000 </r>
       <r>   19.0157    0.0000 </r>
      </set>
      <set comment="kpoint 137">
       <r>   -1.6694    1.0000 </r>
       <r>   16.1266    0.0000 </r>
       <r>   16.1266    0.0000 </r>
       <r>   16.2510    0.0000 </r>
       <r>   18.3717    0.0000 </r>
      </set>
      <set comment="kpoint 138">
       <r>   -1.4760    1.0000 </r>
       <r>   15.8988    0.0000 </r>
       <r>   15.8988    0.0000 </r>
       <r>   15.9944    0.0000 </r>
       <r>   17.7291    0.0000 </r>
      </set>
      <set comment="kpoint 139">
       <r>   -1.2711    1.0000 </r>
       <r>   15.6809    0.0000 </r>
       <r>   15.6809    0.0000 </r>
       <r>   15.7483    0.0000 </r>
       <r>   17.0919    0.0000 </r>
      </set>
      <set comment="kpoint 140">
       <r>   -1.0548    1.0000 </r>
       <r>   15.4731    0.0000 </r>
       <r>   15.4732    0.0000 </r>
       <r>   15.5128    0.0000 </r>
       <r>   16.4613    0.0000 </r>
      </set>
      <set comment="kpoint 141">
       <r>   -0.8270    1.0000 </r>
       <r>   15.2781    0.0000 </r>
       <r>   15.2781    0.0000 </r>
       <r>   15.2950    0.0000 </r>
       <r>   15.8382    0.0000 </r>
      </set>
      <set comment="kpoint 142">
       <r>   -0.5882    1.0000 </r>
       <r>   15.0772    0.0000 </r>
       <r>   15.0902    0.0000 </r>
       <r>   15.0902    0.0000 </r>
       <r>   15.2192    0.0000 </r>
      </set>
      <set comment="kpoint 143">
       <r>   -0.3382    1.0000 </r>
       <r>   14.6127    0.0000 </r>
       <r>   14.8746    0.0000 </r>
       <r>   14.9125    0.0000 </r>
       <r>   14.9125    0.0000 </r>
      </set>
      <set comment="kpoint 144">
       <r>   -0.0771    1.0000 </r>
       <r>   14.0148    0.0000 </r>
       <r>   14.6832    0.0000 </r>
       <r>   14.7449    0.0000 </r>
       <r>   14.7449    0.0000 </r>
      </set>
      <set comment="kpoint 145">
       <r>    0.1950    1.0000 </r>
       <r>   13.4257    0.0000 </r>
       <r>   14.5031    0.0000 </r>
       <r>   14.5875    0.0000 </r>
       <r>   14.5875    0.0000 </r>
      </set>
      <set comment="kpoint 146">
[...]
       </set>
       <set comment="band 2">
        <r>  0.0000  0.0000  0.6655 </r>
       </set>
       <set comment="band 3">
        <r>  0.0000  0.0000  0.6655 </r>
       </set>
       <set comment="band 4">
        <r>  0.0000  0.0000  0.6655 </r>
       </set>
       <set comment="band 5">
        <r>  0.0000  0.7653  0.0000 </r>
       </set>
      </set>
      <set comment="kpoint 281">
       <set comment="band 1">
        <r>  0.5918  0.0000  0.0000 </r>
       </set>
       <set comment="band 2">
        <r>  0.0000  0.0000  0.6655 </r>
       </set>
       <set comment="band 3">
        <r>  0.0000  0.0000  0.6655 </r>
       </set>
       <set comment="band 4">
        <r>  0.0000  0.0000  0.6655 </r>
       </set>
       <set comment="band 5">
        <r>  0.0000  0.7653  0.0000 </r>
       </set>
      </set>
      <set comment="kpoint 282">
       <set comment="band 1">
        <r>  0.5914  0.0002  0.0000 </r>
       </set>
       <set comment="band 2">
        <r>  0.0000  0.0580  0.6053 </r>
       </set>
       <set comment="band 3">
        <r>  0.0001  0.0640  0.6074 </r>
       </set>
       <set comment="band 4">
        <r>  0.0000  0.0000  0.6654 </r>
       </set>
       <set comment="band 5">
        <r>  0.0000  0.7655  0.0002 </r>
       </set>
      </set>
      <set comment="kpoint 283">
       <set comment="band 1">
        <r>  0.5901  0.0016  0.0000 </r>
       </set>
       <set comment="band 2">
        <r>  0.0000  0.1299  0.5252 </r>
       </set>
       <set comment="band 3">
        <r>  0.0013  0.1650  0.5134 </r>
       </set>
       <set comment="band 4">
        <r>  0.0000  0.0000  0.6650 </r>
       </set>
       <set comment="band 5">
        <r>  0.0000  0.7670  0.0005 </r>
       </set>
      </set>
      <set comment="kpoint 284">
       <set comment="band 1">
        <r>  0.5881  0.0038  0.0000 </r>
       </set>
       <set comment="band 2">
        <r>  0.0000  0.1722  0.4720 </r>
       </set>
       <set comment="band 3">
        <r>  0.0042  0.2403  0.4395 </r>
       </set>
       <set comment="band 4">
        <r>  0.0000  0.0000  0.6643 </r>
       </set>
       <set comment="band 5">
        <r>  0.0000  0.7687  0.0011 </r>
       </set>
      </set>
      <set comment="kpoint 285">
       <set comment="band 1">
        <r>  0.5853  0.0068  0.0000 </r>
       </set>
       <set comment="band 2">
        <r>  0.0000  0.1961  0.4379 </r>
       </set>
       <set comment="band 3">
        <r>  0.0086  0.2909  0.3855 </r>
       </set>
       <set comment="band 4">
        <r>  0.0000  0.0000  0.6633 </r>
       </set>
       <set comment="band 5">
        <r>  0.0000  0.7717  0.0018 </r>
       </set>
      </set>
      <set comment="kpoint 286">
       <set comment="band 1">
        <r>  0.5817  0.0106  0.0000 </r>
       </set>
       <set comment="band 2">
        <r>  0.0000  0.2131  0.4124 </r>
       </set>
       <set comment="band 3">
        <r>  0.0145  0.3265  0.3428 </r>
       </set>
       <set comment="band 4">
        <r>  0.0000  0.0000  0.6621 </r>
       </set>
       <set comment="band 5">
        <r>  0.0000  0.7763  0.0023 </r>
       </set>
      </set>
      <set comment="kpoint 287">
       <set comment="band 1">
        <r>  0.5773  0.0152  0.0001 </r>
       </set>
       <set comment="band 2">
        <r>  0.0000  0.2262  0.3928 </r>
       </set>
       <set comment="band 3">
        <r>  0.0217  0.3508  0.3087 </r>
       </set>
       <set comment="band 4">
        <r>  0.0000  0.0000  0.6606 </r>
       </set>
       <set comment="band 5">
        <r>  0.0000  0.7826  0.0027 </r>
       </set>
      </set>
      <set comment="kpoint 288">
       <set comment="band 1">
        <r>  0.5721  0.0206  0.0002 </r>
       </set>
       <set comment="band 2">
        <r>  0.0000  0.2373  0.3766 </r>
       </set>
       <set comment="band 3">
        <r>  0.0300  0.3680  0.2799 </r>
       </set>
       <set comment="band 4">
        <r>  0.0000  0.0000  0.6589 </r>
       </set>
       <set comment="band 5">
        <r>  0.0000  0.7922  0.0023 </r>
       </set>
      </set>
      <set comment="kpoint 289">
       <set comment="band 1">
        <r>  0.5661  0.0267  0.0003 </r>
       </set>
       <set comment="band 2">
        <r>  0.0000  0.2475  0.3627 </r>
       </set>
       <set comment="band 3">
        <r>  0.0393  0.3796  0.2553 </r>
       </set>
       <set comment="band 4">
        <r>  0.0000  0.0000  0.6569 </r>
       </set>
       <set comment="band 5">
        <r>  0.0000  0.8056  0.0014 </r>
       </set>
      </set>
      <set comment="kpoint 290">
       <set comment="band 1">
        <r>  0.5594  0.0336  0.0004 </r>
       </set>
       <set comment="band 2">
        <r>  0.0000  0.2573  0.3502 </r>
       </set>
       <set comment="band 3">
        <r>  0.0494  0.3867  0.2341 </r>
       </set>
       <set comment="band 4">
        <r>  0.0000  0.0000  0.6546 </r>
       </set>
       <set comment="band 5">
        <r>  0.0000  0.8234  0.0001 </r>
       </set>
      </set>
      <set comment="kpoint 291">
       <set comment="band 1">
        <r>  0.5519  0.0411  0.0007 </r>
       </set>
       <set comment="band 2">
        <r>  0.0000  0.2672  0.3383 </r>
       </set>
       <set comment="band 3">
        <r>  0.0602  0.3908  0.2152 </r>
       </set>
       <set comment="band 4">
        <r>  0.0000  0.0000  0.6521 </r>
       </set>
       <set comment="band 5">
        <r>  0.0000  0.8426  0.0018 </r>
       </set>
      </set>
      <set comment="kpoint 292">
       <set comment="band 1">
        <r>  0.5438  0.0493  0.0010 </r>
       </set>
       <set comment="band 2">
        <r>  0.0000  0.2768  0.3275 </r>
       </set>
       <set comment="band 3">
        <r>  0.0716  0.3914  0.1992 </r>
       </set>
       <set comment="band 4">
        <r>  0.0000  0.0000  0.6494 </r>
       </set>
       <set comment="band 5">
        <r>  0.0000  0.8466  0.0174 </r>
       </set>
      </set>
      <set comment="kpoint 293">
       <set comment="band 1">
        <r>  0.5350  0.0582  0.0013 </r>
       </set>
       <set comment="band 2">
        <r>  0.0000  0.2865  0.3172 </r>
       </set>
       <set comment="band 3">
        <r>  0.0834  0.3895  0.1852 </r>
       </set>
       <set comment="band 4">
        <r>  0.0000  0.0000  0.6465 </r>
       </set>
       <set comment="band 5">
        <r>  0.0000  0.7987  0.0665 </r>
       </set>
      </set>
      <set comment="kpoint 294">
       <set comment="band 1">
        <r>  0.5255  0.0676  0.0018 </r>
       </set>
       <set comment="band 2">
        <r>  0.0000  0.2962  0.3071 </r>
       </set>
       <set comment="band 3">
        <r>  0.0957  0.3856  0.1730 </r>
       </set>
       <set comment="band 4">
        <r>  0.0000  0.0000  0.6434 </r>
       </set>
       <set comment="band 5">
        <r>  0.0000  0.6970  0.1402 </r>
       </set>
      </set>
      <set comment="kpoint 295">
       <set comment="band 1">
        <r>  0.5154  0.0776  0.0025 </r>
       </set>
       <set comment="band 2">
        <r>  0.0000  0.3064  0.2968 </r>
       </set>
       <set comment="band 3">
        <r>  0.1084  0.3801  0.1623 </r>
       </set>
       <set comment="band 4">
        <r>  0.0000  0.5981  0.2016 </r>
       </set>
       <set comment="band 5">
        <r>  0.0000  0.0000  0.6401 </r>
       </set>
      </set>
      <set comment="kpoint 296">
       <set comment="band 1">
        <r>  0.5047  0.0880  0.0032 </r>
       </set>
       <set comment="band 2">
        <r>  0.0000  0.3165  0.2869 </r>
       </set>
       <set comment="band 3">
        <r>  0.1214  0.3730  0.1531 </r>
       </set>
       <set comment="band 4">
        <r>  0.0000  0.5311  0.2383 </r>
       </set>
       <set comment="band 5">
        <r>  0.0000  0.0000  0.6367 </r>
       </set>
      </set>
      <set comment="kpoint 297">
       <set comment="band 1">
        <r>  0.4934  0.0990  0.0041 </r>
       </set>
       <set comment="band 2">
        <r>  0.0000  0.3266  0.2769 </r>
       </set>
       <set comment="band 3">
        <r>  0.1346  0.3646  0.1451 </r>
       </set>
       <set comment="band 4">
        <r>  0.0000  0.4909  0.2569 </r>
       </set>
       <set comment="band 5">
        <r>  0.0002  0.0008  0.6317 </r>
       </set>
      </set>
      <set comment="kpoint 298">
       <set comment="band 1">
        <r>  0.4816  0.1103  0.0052 </r>
       </set>
       <set comment="band 2">
        <r>  0.0000  0.3369  0.2669 </r>
       </set>
       <set comment="band 3">
        <r>  0.1480  0.3551  0.1384 </r>
       </set>
       <set comment="band 4">
        <r>  0.0000  0.4676  0.2647 </r>
       </set>
       <set comment="band 5">
        <r>  0.0146  0.0515  0.5473 </r>
       </set>
      </set>
      <set comment="kpoint 299">
       <set comment="band 1">
        <r>  0.4692  0.1219  0.0064 </r>
       </set>
       <set comment="band 2">
        <r>  0.0000  0.3473  0.2569 </r>
       </set>
       <set comment="band 3">
        <r>  0.1616  0.3446  0.1328 </r>
       </set>
       <set comment="band 4">
        <r>  0.0000  0.4548  0.2661 </r>
       </set>
       <set comment="band 5">
        <r>  0.0613  0.1891  0.3104 </r>
       </set>
      </set>
      <set comment="kpoint 300">
       <set comment="band 1">
        <r>  0.4564  0.1339  0.0079 </r>
       </set>
       <set comment="band 2">
        <r>  0.0000  0.3577  0.2467 </r>
       </set>
       <set comment="band 3">
        <r>  0.1753  0.3332  0.1281 </r>
       </set>
       <set comment="band 4">
        <r>  0.0000  0.4489  0.2635 </r>
       </set>
       <set comment="band 5">
        <r>  0.0694  0.1838  0.3043 </r>
       </set>
      </set>
      <set comment="kpoint 301">
       <set comment="band 1">
        <r>  0.4431  0.1461  0.0096 </r>
       </set>
       <set comment="band 2">
        <r>  0.0000  0.3682  0.2365 </r>
       </set>
       <set comment="band 3">
        <r>  0.1892  0.3211  0.1244 </r>
       </set>
       <set comment="band 4">
        <r>  0.0000  0.4474  0.2581 </r>
       </set>
       <set comment="band 5">
        <r>  0.0775  0.1775  0.2997 </r>
       </set>
      </set>
      <set comment="kpoint 302">
       <set comment="band 1">
        <r>  0.4293  0.1586  0.0115 </r>
       </set>
       <set comment="band 2">
        <r>  0.0000  0.3787  0.2262 </r>
       </set>
       <set comment="band 3">
        <r>  0.2031  0.3084  0.1214 </r>
       </set>
       <set comment="band 4">
        <r>  0.0000  0.4490  0.2510 </r>
       </set>
       <set comment="band 5">
        <r>  0.0861  0.1704  0.2967 </r>
       </set>
      </set>
      <set comment="kpoint 303">
       <set comment="band 1">
        <r>  0.4151  0.1712  0.0137 </r>
       </set>
       <set comment="band 2">
        <r>  0.0000  0.3893  0.2158 </r>
       </set>
       <set comment="band 3">
        <r>  0.2171  0.2950  0.1193 </r>
       </set>
       <set comment="band 4">
        <r>  0.0000  0.4529  0.2425 </r>
       </set>
       <set comment="band 5">
        <r>  0.0948  0.1626  0.2951 </r>
       </set>
      </set>
      <set comment="kpoint 304">
       <set comment="band 1">
        <r>  0.4006  0.1839  0.0161 </r>
       </set>
       <set comment="band 2">
        <r>  0.0000  0.3998  0.2054 </r>
       </set>
       <set comment="band 3">
        <r>  0.2312  0.2812  0.1178 </r>
       </set>
       <set comment="band 4">
        <r>  0.0000  0.4583  0.2331 </r>
       </set>
       <set comment="band 5">
        <r>  0.1037  0.1541  0.2946 </r>
       </set>
      </set>
      <set comment="kpoint 305">
       <set comment="band 1">
        <r>  0.3856  0.1967  0.0188 </r>
       </set>
       <set comment="band 2">
        <r>  0.0000  0.4103  0.1948 </r>
       </set>
       <set comment="band 3">
        <r>  0.2453  0.2670  0.1169 </r>
       </set>
       <set comment="band 4">
        <r>  0.0000  0.4656  0.2225 </r>
       </set>
       <set comment="band 5">
        <r>  0.1125  0.1450  0.2949 </r>
       </set>
      </set>
      <set comment="kpoint 306">
       <set comment="band 1">
        <r>  0.3703  0.2094  0.0218 </r>
       </set>
       <set comment="band 2">
        <r>  0.0000  0.4207  0.1843 </r>
       </set>
       <set comment="band 3">
        <r>  0.2594  0.2525  0.1167 </r>
       </set>
       <set comment="band 4">
        <r>  0.0000  0.4731  0.2118 </r>
       </set>
       <set comment="band 5">
        <r>  0.1214  0.1354  0.2964 </r>
       </set>
      </set>
      <set comment="kpoint 307">
       <set comment="band 1">
        <r>  0.3547  0.2222  0.0252 </r>
       </set>
       <set comment="band 2">
        <r>  0.0000  0.4310  0.1738 </r>
       </set>
       <set comment="band 3">
        <r>  0.2734  0.2376  0.1170 </r>
       </set>
       <set comment="band 4">
        <r>  0.0000  0.4810  0.2009 </r>
       </set>
       <set comment="band 5">
        <r>  0.1302  0.1253  0.2987 </r>
       </set>
      </set>
      <set comment="kpoint 308">
       <set comment="band 1">
        <r>  0.3388  0.2349  0.0288 </r>
       </set>
       <set comment="band 2">
        <r>  0.0000  0.4412  0.1634 </r>
       </set>
       <set comment="band 3">
        <r>  0.2875  0.2225  0.1177 </r>
       </set>
       <set comment="band 4">
        <r>  0.0000  0.4894  0.1897 </r>
       </set>
       <set comment="band 5">
        <r>  0.1390  0.1149  0.3018 </r>
       </set>
      </set>
      <set comment="kpoint 309">
       <set comment="band 1">
        <r>  0.3225  0.2475  0.0328 </r>
       </set>
       <set comment="band 2">
        <r>  0.0000  0.4512  0.1529 </r>
       </set>
       <set comment="band 3">
        <r>  0.3015  0.2073  0.1189 </r>
       </set>
       <set comment="band 4">
        <r>  0.0000  0.4982  0.1783 </r>
       </set>
       <set comment="band 5">
        <r>  0.1475  0.1043  0.3055 </r>
       </set>
      </set>
      <set comment="kpoint 310">
       <set comment="band 1">
        <r>  0.3059  0.2600  0.0372 </r>
       </set>
       <set comment="band 2">
        <r>  0.0000  0.4611  0.1426 </r>
       </set>
       <set comment="band 3">
        <r>  0.3156  0.1919  0.1204 </r>
       </set>
       <set comment="band 4">
        <r>  0.0000  0.5071  0.1669 </r>
       </set>
       <set comment="band 5">
        <r>  0.1559  0.0936  0.3097 </r>
       </set>
      </set>
      <set comment="kpoint 311">
       <set comment="band 1">
        <r>  0.2889  0.2724  0.0419 </r>
       </set>
       <set comment="band 2">
        <r>  0.0000  0.4707  0.1324 </r>
       </set>
       <set comment="band 3">
        <r>  0.3296  0.1764  0.1223 </r>
       </set>
       <set comment="band 4">
        <r>  0.0000  0.5161  0.1554 </r>
       </set>
       <set comment="band 5">
        <r>  0.1639  0.0829  0.3144 </r>
       </set>
      </set>
      <set comment="kpoint 312">
       <set comment="band 1">
        <r>  0.2716  0.2845  0.0471 </r>
       </set>
       <set comment="band 2">
        <r>  0.0000  0.4801  0.1224 </r>
       </set>
       <set comment="band 3">
        <r>  0.3437  0.1608  0.1244 </r>
       </set>
       <set comment="band 4">
        <r>  0.0000  0.5250  0.1441 </r>
       </set>
       <set comment="band 5">
        <r>  0.1716  0.0721  0.3196 </r>
       </set>
      </set>
      <set comment="kpoint 313">
       <set comment="band 1">
        <r>  0.2537  0.2967  0.0527 </r>
       </set>
       <set comment="band 2">
        <r>  0.0000  0.4893  0.1125 </r>
       </set>
       <set comment="band 3">
        <r>  0.3579  0.1451  0.1267 </r>
       </set>
       <set comment="band 4">
        <r>  0.0000  0.5339  0.1328 </r>
       </set>
       <set comment="band 5">
        <r>  0.1789  0.0616  0.3249 </r>
       </set>
      </set>
      <set comment="kpoint 314">
       <set comment="band 1">
        <r>  0.2352  0.3088  0.0588 </r>
       </set>
       <set comment="band 2">
        <r>  0.0000  0.4982  0.1028 </r>
       </set>
       <set comment="band 3">
        <r>  0.3724  0.1293  0.1291 </r>
       </set>
       <set comment="band 4">
        <r>  0.0000  0.5428  0.1216 </r>
       </set>
       <set comment="band 5">
        <r>  0.1857  0.0515  0.3305 </r>
       </set>
      </set>
      <set comment="kpoint 315">
       <set comment="band 1">
        <r>  0.2157  0.3209  0.0653 </r>
       </set>
       <set comment="band 2">
        <r>  0.0000  0.5068  0.0934 </r>
       </set>
       <set comment="band 3">
        <r>  0.3874  0.1134  0.1316 </r>
       </set>
       <set comment="band 4">
        <r>  0.0000  0.5515  0.1107 </r>
       </set>
       <set comment="band 5">
        <r>  0.1920  0.0418  0.3362 </r>
       </set>
      </set>
      <set comment="kpoint 316">
       <set comment="band 1">
        <r>  0.1949  0.3331  0.0725 </r>
       </set>
       <set comment="band 2">
        <r>  0.0000  0.5152  0.0843 </r>
       </set>
       <set comment="band 3">
        <r>  0.4033  0.0971  0.1340 </r>
       </set>
       <set comment="band 4">
        <r>  0.0000  0.5603  0.0998 </r>
       </set>
       <set comment="band 5">
        <r>  0.1976  0.0325  0.3420 </r>
       </set>
      </set>
      <set comment="kpoint 317">
       <set comment="band 1">
        <r>  0.1719  0.3461  0.0804 </r>
       </set>
       <set comment="band 2">
        <r>  0.0000  0.5231  0.0755 </r>
       </set>
       <set comment="band 3">
        <r>  0.4210  0.0800  0.1362 </r>
       </set>
       <set comment="band 4">
        <r>  0.0000  0.5685  0.0895 </r>
       </set>
       <set comment="band 5">
        <r>  0.2025  0.0241  0.3477 </r>
       </set>
      </set>
      <set comment="kpoint 318">
       <set comment="band 1">
        <r>  0.1450  0.3604  0.0894 </r>
       </set>
       <set comment="band 2">
        <r>  0.0000  0.5307  0.0670 </r>
       </set>
       <set comment="band 3">
        <r>  0.4422  0.0615  0.1378 </r>
       </set>
       <set comment="band 4">
        <r>  0.0000  0.5763  0.0796 </r>
       </set>
       <set comment="band 5">
        <r>  0.2066  0.0165  0.3534 </r>
       </set>
      </set>
      <set comment="kpoint 319">
       <set comment="band 1">
        <r>  0.1100  0.3779  0.1002 </r>
       </set>
       <set comment="band 2">
        <r>  0.0000  0.5379  0.0590 </r>
       </set>
       <set comment="band 3">
        <r>  0.4709  0.0399  0.1380 </r>
       </set>
       <set comment="band 4">
        <r>  0.0000  0.5838  0.0701 </r>
       </set>
       <set comment="band 5">
        <r>  0.2097  0.0100  0.3588 </r>
       </set>
      </set>
      <set comment="kpoint 320">
       <set comment="band 1">
        <r>  0.0000  0.5447  0.0513 </r>
       </set>
       <set comment="band 2">
        <r>  0.0563  0.4010  0.1159 </r>
       </set>
       <set comment="band 3">
        <r>  0.5178  0.0125  0.1338 </r>
       </set>
       <set comment="band 4">
        <r>  0.0000  0.5909  0.0610 </r>
       </set>
       <set comment="band 5">
        <r>  0.2117  0.0049  0.3639 </r>
       </set>
      </set>
     </set>
    </set>
   </array>
  </projected>
 </calculation>
 <structure name="finalpos" >
  <crystal>
   <varray name="basis" >
    <v>       0.00000000       2.02500000       2.02500000 </v>
    <v>       2.02500000       0.00000000       2.02500000 </v>
    <v>       2.02500000       2.02500000       0.00000000 </v>
   </varray>
   <i name="volume">     16.60753125 </i>
   <varray name="rec_basis" >
    <v>      -0.24691358       0.24691358       0.24691358 </v>
    <v>       0.24691358      -0.24691358       0.24691358 </v>
    <v>       0.24691358       0.24691358      -0.24691358 </v>
   </varray>
  </crystal>
  <varray name="positions" >
   <v>       0.00000000       0.00000000       0.00000000 </v>
  </varray>
 </structure>
</modeling>
