AuAl2                                   
   6.50000000000000     
    -0.000000    0.443956    0.443956
     0.443956    0.000000    0.443956
     0.443956    0.443956    0.000000
   Au   Al
     1     2
Direct
  0.000000  0.000000  0.000000
  0.250000  0.250000  0.250000
  0.750000  0.750000  0.750000
 
   40   40   40
  322.67      311.45      282.17      244.37      205.59      168.06      131.22      95.995      65.788      43.777    
  30.178      22.125      17.078      13.999      12.071      10.798      9.9352      9.3686      9.0275      8.8529    
  8.8004      8.8529      9.0275      9.3686      9.9352      10.798      12.071      13.999      17.078      22.125    
  30.178      43.777      65.788      95.995      131.22      168.06      205.59      244.37      282.17      311.45    
  311.45      291.27      258.15      220.76      183.62      147.08      111.22      78.541      52.727      35.561    
  25.446      19.170      15.301      12.920      11.385      10.351      9.6551      9.2147      8.9669      8.8589    
  8.8589      8.9669      9.2147      9.6551      10.351      11.385      12.920      15.301      19.170      25.446    
  35.561      52.727      78.541      111.22      147.08      183.62      220.76      258.15      291.27      311.45    
  282.17      258.15      226.25      192.03      157.31      122.41      89.154      61.135      41.114      28.848    
  21.429      16.759      13.895      12.084      10.878      10.057      9.5183      9.1940      9.0281      8.9782    
  9.0281      9.1940      9.5183      10.057      10.878      12.084      13.895      16.759      21.429      28.848    
  41.114      61.135      89.154      122.40      157.31      192.03      226.25      258.15      282.17      291.27    
  244.37      220.76      192.03      160.86      128.31      96.143      67.649      46.011      32.035      23.621    
  18.251      14.925      12.844      11.477      10.544      9.9139      9.5146      9.2897      9.1914      9.1914    
  9.2897      9.5146      9.9139      10.544      11.477      12.844      14.925      18.251      23.621      32.035    
  46.011      67.649      96.143      128.31      160.86      192.03      220.76      244.37      258.15      258.15    
  205.59      183.62      157.31      128.31      98.579      71.197      49.382      34.559      25.467      19.610    
  15.913      13.601      12.097      11.072      10.365      9.8982      9.6154      9.4692      9.4248      9.4692    
  9.6154      9.8982      10.365      11.072      12.097      13.601      15.913      19.610      25.467      34.559    
  49.382      71.197      98.579      128.31      157.31      183.62      205.59      220.76      226.25      220.76    
  168.06      147.08      122.41      96.143      71.197      50.583      35.963      26.701      20.651      16.741    
  14.275      12.676      11.588      10.828      10.307      9.9709      9.7767      9.6895      9.6895      9.7767    
  9.9709      10.307      10.828      11.588      12.676      14.275      16.741      20.651      26.701      35.963    
  50.583      71.197      96.143      122.41      147.08      168.06      183.62      192.03      192.03      183.62    
  131.22      111.22      89.154      67.649      49.382      35.963      27.136      21.218      17.294      14.782    
  13.150      12.039      11.254      10.699      10.320      10.080      9.9478      9.9061      9.9478      10.080    
  10.320      10.699      11.254      12.039      13.150      14.782      17.294      21.218      27.136      35.963    
  49.382      67.649      89.154      111.22      131.22      147.08      157.31      160.86      157.31      147.08    
  95.995      78.541      61.135      46.011      34.559      26.701      21.218      17.488      15.056      13.461    
  12.373      11.598      11.034      10.629      10.349      10.171      10.084      10.084      10.171      10.349    
  10.629      11.034      11.598      12.373      13.461      15.056      17.488      21.218      26.701      34.559    
  46.011      61.135      78.541      95.995      111.22      122.41      128.31      128.31      122.40      111.22    
  65.788      52.727      41.114      32.035      25.467      20.651      17.294      15.056      13.570      12.551    
  11.821      11.279      10.871      10.564      10.343      10.206      10.159      10.206      10.343      10.564    
  10.871      11.279      11.821      12.551      13.570      15.056      17.294      20.651      25.467      32.035    
  41.113      52.727      65.788      78.541      89.154      96.143      98.579      96.143      89.154      78.541    
  43.777      35.561      28.848      23.621      19.610      16.741      14.782      13.461      12.551      11.898    
  11.408      11.025      10.713      10.460      10.273      10.172      10.172      10.273      10.460      10.713    
  11.025      11.408      11.898      12.551      13.461      14.782      16.741      19.610      23.621      28.848    
  35.561      43.777      52.727      61.135      67.649      71.197      71.197      67.649      61.135      52.727    
  30.178      25.446      21.429      18.251      15.913      14.275      13.150      12.373      11.821      11.408    
  11.077      10.789      10.527      10.302      10.144      10.087      10.144      10.302      10.527      10.789    
  11.077      11.408      11.821      12.373      13.150      14.275      15.913      18.251      21.429      25.446    
  30.178      35.561      41.113      46.011      49.382      50.583      49.382      46.011      41.114      35.561    
  22.125      19.170      16.759      14.925      13.601      12.676      12.039      11.598      11.279      11.025    
  10.789      10.548      10.310      10.107      9.9886      9.9886      10.107      10.310      10.548      10.789    
  11.025      11.279      11.598      12.039      12.676      13.601      14.925      16.759      19.170      22.125    
  25.446      28.848      32.035      34.559      35.963      35.963      34.559      32.035      28.848      25.446    
  17.078      15.301      13.895      12.844      12.097      11.588      11.254      11.034      10.871      10.713    
  10.527      10.310      10.091      9.9238      9.8608      9.9238      10.091      10.310      10.527      10.713    
  10.871      11.034      11.254      11.588      12.097      12.844      13.895      15.301      17.078      19.170    
  21.429      23.621      25.467      26.701      27.136      26.701      25.467      23.621      21.429      19.170    
  13.999      12.920      12.084      11.477      11.072      10.828      10.699      10.629      10.564      10.460    
  10.302      10.107      9.9238      9.8114      9.8114      9.9238      10.107      10.302      10.460      10.564    
  10.629      10.699      10.828      11.072      11.477      12.084      12.920      13.999      15.301      16.759    
  18.251      19.610      20.651      21.218      21.218      20.651      19.610      18.251      16.759      15.301    
  12.071      11.385      10.878      10.544      10.365      10.307      10.320      10.349      10.343      10.273    
  10.144      9.9886      9.8608      9.8114      9.8608      9.9887      10.144      10.273      10.343      10.349    
  10.320      10.307      10.365      10.544      10.878      11.385      12.071      12.920      13.895      14.925    
  15.913      16.741      17.294      17.488      17.294      16.741      15.913      14.925      13.895      12.920    
  10.798      10.351      10.057      9.9139      9.8982      9.9709      10.080      10.171      10.206      10.172    
  10.087      9.9886      9.9238      9.9238      9.9887      10.087      10.172      10.206      10.171      10.080    
  9.9709      9.8983      9.9139      10.057      10.351      10.798      11.385      12.084      12.844      13.601    
  14.275      14.782      15.056      15.056      14.782      14.275      13.601      12.844      12.084      11.385    
  9.9352      9.6551      9.5183      9.5146      9.6154      9.7767      9.9478      10.084      10.159      10.172    
  10.144      10.107      10.091      10.107      10.144      10.172      10.159      10.084      9.9478      9.7767    
  9.6154      9.5147      9.5184      9.6552      9.9352      10.351      10.878      11.477      12.097      12.676    
  13.150      13.461      13.570      13.461      13.150      12.676      12.097      11.477      10.878      10.351    
  9.3686      9.2147      9.1940      9.2897      9.4692      9.6895      9.9061      10.084      10.206      10.273    
  10.302      10.310      10.310      10.302      10.273      10.206      10.084      9.9061      9.6895      9.4692    
  9.2897      9.1941      9.2148      9.3686      9.6552      10.057      10.544      11.072      11.588      12.039    
  12.373      12.551      12.551      12.373      12.039      11.588      11.072      10.544      10.057      9.6551    
  9.0275      8.9669      9.0281      9.1914      9.4248      9.6895      9.9478      10.171      10.343      10.460    
  10.527      10.548      10.527      10.460      10.343      10.171      9.9478      9.6895      9.4248      9.1914    
  9.0281      8.9669      9.0275      9.2148      9.5184      9.9139      10.365      10.828      11.254      11.598    
  11.821      11.898      11.821      11.598      11.254      10.828      10.365      9.9139      9.5183      9.2147    
  8.8529      8.8589      8.9782      9.1914      9.4692      9.7767      10.080      10.349      10.564      10.713    
  10.789      10.789      10.713      10.564      10.349      10.080      9.7767      9.4692      9.1914      8.9781    
  8.8589      8.8529      8.9669      9.1941      9.5147      9.8983      10.307      10.699      11.034      11.279    
  11.408      11.408      11.279      11.034      10.699      10.307      9.8982      9.5146      9.1940      8.9669    
  8.8004      8.8589      9.0281      9.2897      9.6154      9.9709      10.320      10.629      10.871      11.025    
  11.077      11.025      10.871      10.629      10.320      9.9709      9.6154      9.2897      9.0281      8.8589    
  8.8003      8.8589      9.0281      9.2897      9.6154      9.9709      10.320      10.629      10.871      11.025    
  11.077      11.025      10.871      10.629      10.320      9.9709      9.6154      9.2897      9.0281      8.8589    
  8.8529      8.9669      9.1940      9.5146      9.8982      10.307      10.699      11.034      11.279      11.408    
  11.408      11.279      11.034      10.699      10.307      9.8983      9.5147      9.1941      8.9669      8.8529    
  8.8589      8.9781      9.1914      9.4692      9.7767      10.080      10.349      10.564      10.713      10.789    
  10.789      10.713      10.564      10.349      10.080      9.7767      9.4692      9.1914      8.9782      8.8589    
  9.0275      9.2147      9.5183      9.9139      10.365      10.828      11.254      11.598      11.821      11.898    
  11.821      11.598      11.254      10.828      10.365      9.9139      9.5184      9.2148      9.0275      8.9669    
  9.0281      9.1914      9.4248      9.6895      9.9478      10.171      10.343      10.460      10.527      10.548    
  10.527      10.460      10.343      10.171      9.9478      9.6895      9.4248      9.1914      9.0281      8.9669    
  9.3686      9.6551      10.057      10.544      11.072      11.588      12.039      12.373      12.551      12.551    
  12.373      12.039      11.588      11.072      10.544      10.057      9.6552      9.3686      9.2148      9.1941    
  9.2897      9.4692      9.6895      9.9061      10.084      10.206      10.273      10.302      10.310      10.310    
  10.302      10.273      10.206      10.084      9.9061      9.6895      9.4692      9.2897      9.1940      9.2147    
  9.9352      10.351      10.878      11.477      12.097      12.676      13.150      13.461      13.570      13.461    
  13.150      12.676      12.097      11.477      10.878      10.351      9.9352      9.6552      9.5184      9.5147    
  9.6154      9.7767      9.9478      10.084      10.159      10.172      10.144      10.107      10.091      10.107    
  10.144      10.172      10.159      10.084      9.9478      9.7767      9.6154      9.5146      9.5183      9.6551    
  10.798      11.385      12.084      12.844      13.601      14.275      14.782      15.056      15.056      14.782    
  14.275      13.601      12.844      12.084      11.385      10.798      10.351      10.057      9.9139      9.8983    
  9.9709      10.080      10.171      10.206      10.172      10.087      9.9887      9.9238      9.9238      9.9886    
  10.087      10.172      10.206      10.171      10.080      9.9709      9.8982      9.9139      10.057      10.351    
  12.071      12.920      13.895      14.925      15.913      16.741      17.294      17.488      17.294      16.741    
  15.913      14.925      13.895      12.920      12.071      11.385      10.878      10.544      10.365      10.307    
  10.320      10.349      10.343      10.273      10.144      9.9887      9.8608      9.8114      9.8608      9.9886    
  10.144      10.273      10.343      10.349      10.320      10.307      10.365      10.544      10.878      11.385    
  13.999      15.301      16.759      18.251      19.610      20.651      21.218      21.218      20.651      19.610    
  18.251      16.759      15.301      13.999      12.920      12.084      11.477      11.072      10.828      10.699    
  10.629      10.564      10.460      10.302      10.107      9.9238      9.8114      9.8114      9.9238      10.107    
  10.302      10.460      10.564      10.629      10.699      10.828      11.072      11.477      12.084      12.920    
  17.078      19.170      21.429      23.621      25.467      26.701      27.136      26.701      25.467      23.621    
  21.429      19.170      17.078      15.301      13.895      12.844      12.097      11.588      11.254      11.034    
  10.871      10.713      10.527      10.310      10.091      9.9238      9.8608      9.9238      10.091      10.310    
  10.527      10.713      10.871      11.034      11.254      11.588      12.097      12.844      13.895      15.301    
  22.125      25.446      28.848      32.035      34.559      35.963      35.963      34.559      32.035      28.848    
  25.446      22.125      19.170      16.759      14.925      13.601      12.676      12.039      11.598      11.279    
  11.025      10.789      10.548      10.310      10.107      9.9886      9.9886      10.107      10.310      10.548    
  10.789      11.025      11.279      11.598      12.039      12.676      13.601      14.925      16.759      19.170    
  30.178      35.561      41.114      46.011      49.382      50.583      49.382      46.011      41.113      35.561    
  30.178      25.446      21.429      18.251      15.913      14.275      13.150      12.373      11.821      11.408    
  11.077      10.789      10.527      10.302      10.144      10.087      10.144      10.302      10.527      10.789    
  11.077      11.408      11.821      12.373      13.150      14.275      15.913      18.251      21.429      25.446    
  43.777      52.727      61.135      67.649      71.197      71.197      67.649      61.135      52.727      43.777    
  35.561      28.848      23.621      19.610      16.741      14.782      13.461      12.551      11.898      11.408    
  11.025      10.713      10.460      10.273      10.172      10.172      10.273      10.460      10.713      11.025    
  11.408      11.898      12.551      13.461      14.782      16.741      19.610      23.621      28.848      35.561    
  65.788      78.541      89.154      96.143      98.579      96.143      89.154      78.541      65.788      52.727    
  41.113      32.035      25.467      20.651      17.294      15.056      13.570      12.551      11.821      11.279    
  10.871      10.564      10.343      10.206      10.159      10.206      10.343      10.564      10.871      11.279    
  11.821      12.551      13.570      15.056      17.294      20.651      25.467      32.035      41.114      52.727    
  95.995      111.22      122.40      128.31      128.31      122.41      111.22      95.995      78.541      61.135    
  46.011      34.559      26.701      21.218      17.488      15.056      13.461      12.373      11.598      11.034    
  10.629      10.349      10.171      10.084      10.084      10.171      10.349      10.629      11.034      11.598    
  12.373      13.461      15.056      17.488      21.218      26.701      34.559      46.011      61.135      78.541    
  131.22      147.08      157.31      160.86      157.31      147.08      131.22      111.22      89.154      67.649    
  49.382      35.963      27.136      21.218      17.294      14.782      13.150      12.039      11.254      10.699    
  10.320      10.080      9.9478      9.9061      9.9478      10.080      10.320      10.699      11.254      12.039    
  13.150      14.782      17.294      21.218      27.136      35.963      49.382      67.649      89.154      111.22    
  168.06      183.62      192.03      192.03      183.62      168.06      147.08      122.41      96.143      71.197    
  50.583      35.963      26.701      20.651      16.741      14.275      12.676      11.588      10.828      10.307    
  9.9709      9.7767      9.6895      9.6895      9.7767      9.9709      10.307      10.828      11.588      12.676    
  14.275      16.741      20.651      26.701      35.963      50.583      71.197      96.143      122.41      147.08    
  205.59      220.76      226.25      220.76      205.59      183.62      157.31      128.31      98.579      71.197    
  49.382      34.559      25.467      19.610      15.913      13.601      12.097      11.072      10.365      9.8982    
  9.6154      9.4692      9.4248      9.4692      9.6154      9.8982      10.365      11.072      12.097      13.601    
  15.913      19.610      25.467      34.559      49.382      71.197      98.579      128.31      157.31      183.62    
  244.37      258.15      258.15      244.37      220.76      192.03      160.86      128.31      96.143      67.649    
  46.011      32.035      23.621      18.251      14.925      12.844      11.477      10.544      9.9139      9.5146    
  9.2897      9.1914      9.1914      9.2897      9.5146      9.9139      10.544      11.477      12.844      14.925    
  18.251      23.621      32.035      46.011      67.649      96.143      128.31      160.86      192.03      220.76    
  282.17      291.27      282.17      258.15      226.25      192.03      157.31      122.40      89.154      61.135    
  41.114      28.848      21.429      16.759      13.895      12.084      10.878      10.057      9.5183      9.1940    
  9.0281      8.9782      9.0281      9.1940      9.5183      10.057      10.878      12.084      13.895      16.759    
  21.429      28.848      41.114      61.135      89.154      122.41      157.31      192.03      226.25      258.15    
  311.45      311.45      291.27      258.15      220.76      183.62      147.08      111.22      78.541      52.727    
  35.561      25.446      19.170      15.301      12.920      11.385      10.351      9.6551      9.2147      8.9669    
  8.8589      8.8589      8.9669      9.2147      9.6551      10.351      11.385      12.920      15.301      19.170    
  25.446      35.561      52.727      78.541      111.22      147.08      183.62      220.76      258.15      291.27    
  311.45      291.27      258.15      220.76      183.62      147.08      111.22      78.541      52.727      35.561    
  25.446      19.170      15.301      12.920      11.385      10.351      9.6551      9.2147      8.9669      8.8589    
  8.8589      8.9669      9.2147      9.6551      10.351      11.385      12.920      15.301      19.170      25.446    
  35.561      52.727      78.541      111.22      147.08      183.62      220.76      258.15      291.27      311.45    
  291.27      265.47      231.59      195.89      160.36      124.97      91.244      62.643      42.055      29.399    
  21.792      17.010      14.083      12.239      11.016      10.185      9.6394      9.3110      9.1431      9.0926    
  9.1431      9.3110      9.6393      10.185      11.016      12.239      14.083      17.010      21.792      29.399    
  42.055      62.643      91.244      124.97      160.36      195.89      231.59      265.47      291.27      301.09    
  258.15      231.59      200.22      167.32      133.73      100.63      71.027      48.229      33.349      24.462    
  18.827      15.347      13.184      11.773      10.815      10.169      9.7592      9.5285      9.4279      9.4279    
  9.5285      9.7592      10.169      10.815      11.773      13.184      15.347      18.827      24.462      33.349    
  48.229      71.027      100.63      133.73      167.32      200.22      231.59      258.15      273.94      273.94    
  220.76      195.89      167.32      136.73      105.59      76.602      53.068      36.809      26.870      20.579    
  16.613      14.154      12.572      11.503      10.768      10.282      9.9875      9.8354      9.7892      9.8354    
  9.9875      10.282      10.768      11.503      12.572      14.154      16.613      20.579      26.870      36.809    
  53.069      76.602      105.59      136.73      167.32      195.89      220.76      238.51      245.06      238.51    
  183.62      160.36      133.73      105.59      78.552      55.724      39.192      28.710      22.051      17.750    
  15.063      13.347      12.193      11.391      10.839      10.483      10.276      10.184      10.184      10.276    
  10.483      10.839      11.391      12.193      13.347      15.063      17.750      22.051      28.710      39.192    
  55.724      78.552      105.59      133.73      160.36      183.62      201.50      211.44      211.44      201.50    
  147.08      124.97      100.63      76.602      55.724      40.043      29.717      23.036      18.614      15.813    
  14.023      12.825      11.983      11.385      10.973      10.710      10.565      10.519      10.565      10.710    
  10.973      11.385      11.983      12.825      14.023      15.813      18.614      23.036      29.717      40.043    
  55.724      76.602      100.63      124.97      147.08      164.93      176.69      180.83      176.69      164.93    
  111.22      91.244      71.027      53.068      39.192      29.717      23.382      19.082      16.309      14.526    
  13.333      12.489      11.870      11.418      11.099      10.894      10.794      10.794      10.894      11.099    
  11.418      11.870      12.489      13.333      14.526      16.309      19.082      23.382      29.717      39.192    
  53.068      71.027      91.244      111.22      128.59      141.41      148.23      148.23      141.41      128.59    
  78.541      62.643      48.229      36.809      28.710      23.036      19.082      16.482      14.795      13.664    
  12.859      12.252      11.782      11.418      11.151      10.984      10.926      10.984      11.151      11.418    
  11.782      12.252      12.859      13.664      14.795      16.482      19.082      23.036      28.710      36.808    
  48.229      62.643      78.541      93.831      106.45      114.74      117.63      114.74      106.45      93.831    
  52.727      42.055      33.349      26.870      22.051      18.614      16.309      14.795      13.779      13.054    
  12.497      12.040      11.653      11.329      11.087      10.954      10.954      11.087      11.329      11.653    
  12.040      12.497      13.054      13.779      14.795      16.309      18.614      22.051      26.870      33.349    
  42.055      52.727      64.205      74.849      83.022      87.452      87.452      83.022      74.849      64.205    
  35.561      29.399      24.462      20.579      17.750      15.813      14.526      13.664      13.054      12.581    
  12.174      11.795      11.437      11.121      10.897      10.815      10.897      11.121      11.437      11.795    
  12.174      12.581      13.054      13.664      14.526      15.813      17.750      20.579      24.462      29.399    
  35.561      42.781      50.249      56.799      61.282      62.875      61.282      56.800      50.249      42.781    
  25.446      21.792      18.827      16.613      15.063      14.023      13.333      12.859      12.497      12.174    
  11.842      11.485      11.121      10.809      10.626      10.626      10.809      11.121      11.485      11.842    
  12.174      12.497      12.859      13.333      14.023      15.063      16.613      18.828      21.793      25.446    
  29.603      34.098      38.445      41.927      43.870      43.870      41.927      38.445      34.099      29.603    
  19.170      17.010      15.347      14.154      13.347      12.825      12.489      12.252      12.040      11.795    
  11.485      11.116      10.746      10.466      10.362      10.466      10.746      11.116      11.485      11.795    
  12.040      12.252      12.489      12.825      13.347      14.154      15.347      17.010      19.170      21.752    
  24.556      27.281      29.624      31.235      31.811      31.235      29.624      27.281      24.556      21.752    
  15.301      14.083      13.184      12.572      12.193      11.983      11.870      11.782      11.653      11.437    
  11.121      10.746      10.404      10.199      10.199      10.404      10.746      11.121      11.437      11.653    
  11.782      11.870      11.983      12.193      12.572      13.184      14.083      15.301      16.824      18.571    
  20.386      22.051      23.332      24.029      24.029      23.332      22.051      20.386      18.571      16.824    
  12.920      12.239      11.773      11.503      11.391      11.385      11.418      11.418      11.329      11.121    
  10.809      10.466      10.199      10.098      10.199      10.466      10.809      11.121      11.329      11.418    
  11.418      11.385      11.391      11.503      11.773      12.239      12.920      13.812      14.877      16.037    
  17.173      18.136      18.785      19.014      18.785      18.136      17.173      16.037      14.877      13.812    
  11.385      11.016      10.815      10.768      10.839      10.973      11.099      11.151      11.087      10.897    
  10.626      10.362      10.199      10.199      10.362      10.626      10.897      11.087      11.151      11.099    
  10.973      10.839      10.768      10.815      11.016      11.385      11.918      12.589      13.350      14.131    
  14.841      15.384      15.678      15.678      15.384      14.841      14.131      13.350      12.589      11.918    
  10.351      10.185      10.169      10.282      10.483      10.710      10.894      10.984      10.954      10.815    
  10.626      10.466      10.404      10.466      10.626      10.815      10.954      10.984      10.894      10.710    
  10.483      10.282      10.169      10.185      10.351      10.663      11.102      11.632      12.200      12.746    
  13.201      13.504      13.610      13.504      13.201      12.746      12.201      11.632      11.102      10.663    
  9.6551      9.6394      9.7592      9.9875      10.276      10.565      10.794      10.926      10.954      10.897    
  10.809      10.746      10.746      10.809      10.897      10.954      10.926      10.794      10.565      10.276    
  9.9875      9.7592      9.6394      9.6552      9.8116      10.095      10.476      10.914      11.358      11.754    
  12.053      12.213      12.213      12.053      11.754      11.358      10.914      10.476      10.095      9.8116    
  9.2147      9.3110      9.5285      9.8354      10.184      10.519      10.794      10.984      11.087      11.121    
  11.121      11.116      11.121      11.121      11.087      10.984      10.794      10.519      10.184      9.8354    
  9.5285      9.3111      9.2148      9.2520      9.4165      9.6865      10.028      10.399      10.753      11.045    
  11.237      11.304      11.237      11.045      10.753      10.399      10.028      9.6865      9.4165      9.2520    
  8.9669      9.1431      9.4279      9.7892      10.184      10.565      10.894      11.151      11.329      11.437    
  11.485      11.485      11.437      11.329      11.151      10.894      10.565      10.184      9.7892      9.4278    
  9.1431      8.9669      8.9151      8.9868      9.1670      9.4287      9.7363      10.050      10.328      10.537    
  10.648      10.648      10.537      10.328      10.050      9.7363      9.4286      9.1669      8.9868      8.9150    
  8.8589      9.0926      9.4279      9.8354      10.276      10.710      11.099      11.418      11.653      11.795    
  11.842      11.795      11.653      11.418      11.099      10.710      10.276      9.8354      9.4278      9.0926    
  8.8589      8.7425      8.7449      8.8544      9.0488      9.2984      9.5687      9.8244      10.033      10.170    
  10.217      10.170      10.033      9.8243      9.5687      9.2984      9.0488      8.8543      8.7449      8.7425    
  8.8589      9.1431      9.5285      9.9875      10.483      10.973      11.418      11.782      12.040      12.174    
  12.174      12.040      11.782      11.418      10.973      10.483      9.9875      9.5285      9.1431      8.8589    
  8.6905      8.6392      8.6941      8.8345      9.0332      9.2598      9.4839      9.6782      9.8207      9.8959    
  9.8959      9.8207      9.6782      9.4839      9.2598      9.0332      8.8345      8.6942      8.6393      8.6906    
  8.9669      9.3110      9.7592      10.282      10.839      11.385      11.870      12.252      12.497      12.581    