AuAl2                                   
   6.50000000000000     
    -0.000000    0.458506    0.458506
     0.458506    0.000000    0.458506
     0.458506    0.458506    0.000000
   Au   Al
     1     2
Direct
 -0.000000  0.000000  0.000000
  0.250000  0.250000  0.250000
  0.750000  0.750000  0.750000
 
   40   40   40
 0.24418358925E+03 0.23703120524E+03 0.21794718921E+03 0.19241991416E+03 0.16556139214E+03
 0.13966771874E+03 0.11458351657E+03 0.89955207460E+02 0.66910774866E+02 0.47678175259E+02
 0.33871291188E+02 0.25244756246E+02 0.19926604503E+02 0.16438458172E+02 0.14162982691E+02
 0.12624392693E+02 0.11543478389E+02 0.10787819155E+02 0.10294437834E+02 0.10020685484E+02
 0.99337969186E+01 0.10020685484E+02 0.10294437834E+02 0.10787819155E+02 0.11543478389E+02
 0.12624392693E+02 0.14162982691E+02 0.16438458172E+02 0.19926604503E+02 0.25244756246E+02
 0.33871291188E+02 0.47678175259E+02 0.66910774866E+02 0.89955207460E+02 0.11458351657E+03
 0.13966771874E+03 0.16556139214E+03 0.19241991416E+03 0.21794718921E+03 0.23703120524E+03
 0.23703120524E+03 0.22394326342E+03 0.20183401920E+03 0.17610021537E+03 0.15034535441E+03
 0.12538708211E+03 0.10078530675E+03 0.76976610694E+02 0.55863926675E+02 0.39554089763E+02
 0.28732883816E+02 0.22172790220E+02 0.17925800832E+02 0.15155799089E+02 0.13317819693E+02
 0.12043186036E+02 0.11141159727E+02 0.10525334314E+02 0.10147772947E+02 0.99709752882E+01
 0.99709747352E+01 0.10147771836E+02 0.10525333763E+02 0.11141160330E+02 0.12043187247E+02
 0.13317820305E+02 0.15155798412E+02 0.17925799478E+02 0.22172789679E+02 0.28732885089E+02
 0.39554092262E+02 0.55863928533E+02 0.76976610471E+02 0.10078530523E+03 0.12538708252E+03
 0.15034536050E+03 0.17610022843E+03 0.20183403623E+03 0.22394327801E+03 0.23703121099E+03
 0.21794718921E+03 0.20183401920E+03 0.17991331385E+03 0.15615358899E+03 0.13234520199E+03
 0.10855322570E+03 0.84968097060E+02 0.63084563230E+02 0.45111964682E+02 0.32408540842E+02
 0.24506586517E+02 0.19537396759E+02 0.16259007566E+02 0.14101544784E+02 0.12624316862E+02
 0.11574310906E+02 0.10833819039E+02 0.10347212392E+02 0.10075863383E+02 0.99894734210E+01
 0.10075861850E+02 0.10347210849E+02 0.10833819067E+02 0.11574312582E+02 0.12624318598E+02
 0.14101544801E+02 0.16259005684E+02 0.19537394811E+02 0.24506586807E+02 0.32408543908E+02
 0.45111968437E+02 0.63084564559E+02 0.84968094853E+02 0.10855322280E+03 0.13234520405E+03
 0.15615360055E+03 0.17991333426E+03 0.20183404164E+03 0.21794720394E+03 0.22394327801E+03
 0.19241991416E+03 0.17610021537E+03 0.15615358899E+03 0.13475945368E+03 0.11261505831E+03
 0.90086767860E+02 0.68438411657E+02 0.49778498864E+02 0.35828381186E+02 0.26764589176E+02
 0.21138586596E+02 0.17399195045E+02 0.14930891680E+02 0.13254141559E+02 0.12061187177E+02
 0.11199242615E+02 0.10601601541E+02 0.10230646219E+02 0.10055335730E+02 0.10055334861E+02
 0.10230644467E+02 0.10601600659E+02 0.11199243575E+02 0.12061189173E+02 0.13254142678E+02
 0.14930890698E+02 0.17399192725E+02 0.21138585206E+02 0.26764590479E+02 0.35828384615E+02
 0.49778501628E+02 0.68438410983E+02 0.90086763703E+02 0.11261505419E+03 0.13475945460E+03
 0.15615359767E+03 0.17610022959E+03 0.19241992745E+03 0.20183404164E+03 0.20183403623E+03
 0.16556139214E+03 0.15034535441E+03 0.13234520199E+03 0.11261505831E+03 0.91847625503E+02
 0.71281121888E+02 0.52880035796E+02 0.38479900544E+02 0.28694363083E+02 0.22559569814E+02
 0.18472168808E+02 0.15740668018E+02 0.13886368103E+02 0.12565082236E+02 0.11591679011E+02
 0.10885963409E+02 0.10411762784E+02 0.10142400497E+02 0.10055652464E+02 0.10142399535E+02
 0.10411761803E+02 0.10885963423E+02 0.11591680136E+02 0.12565083517E+02 0.13886368323E+02
 0.15740666820E+02 0.18472167128E+02 0.22559569173E+02 0.28694364251E+02 0.38479902688E+02
 0.52880036895E+02 0.71281120189E+02 0.91847620914E+02 0.11261505261E+03 0.13234519764E+03
 0.15034535285E+03 0.16556139287E+03 0.17610022959E+03 0.17991333426E+03 0.17610022843E+03
 0.13966771874E+03 0.12538708211E+03 0.10855322570E+03 0.90086767860E+02 0.71281121888E+02
 0.53966280775E+02 0.39928628950E+02 0.30004639836E+02 0.23627868400E+02 0.19358016581E+02
 0.16451891576E+02 0.14465692400E+02 0.13043448567E+02 0.11977091204E+02 0.11173159628E+02
 0.10596159715E+02 0.10227055613E+02 0.10048521360E+02 0.10048521247E+02 0.10227055373E+02
 0.10596159580E+02 0.11173159788E+02 0.11977091645E+02 0.13043449033E+02 0.14465692533E+02
 0.16451891175E+02 0.19358015814E+02 0.23627867785E+02 0.30004639936E+02 0.39928629894E+02
 0.53966281901E+02 0.71281121814E+02 0.90086765064E+02 0.10855321939E+03 0.12538707293E+03
 0.13966770885E+03 0.15034535285E+03 0.15615359767E+03 0.15615360055E+03 0.15034536050E+03
 0.11458351657E+03 0.10078530675E+03 0.84968097060E+02 0.68438411657E+02 0.52880035796E+02
 0.39928628950E+02 0.30469555016E+02 0.24204012090E+02 0.19943902430E+02 0.16983660194E+02
 0.14934189811E+02 0.13452485135E+02 0.12321456667E+02 0.11437803204E+02 0.10765634076E+02
 0.10294282317E+02 0.10016507518E+02 0.99250034084E+01 0.10016507940E+02 0.10294282724E+02
 0.10765634058E+02 0.11437802838E+02 0.12321456488E+02 0.13452485597E+02 0.14934190740E+02
 0.16983660817E+02 0.19943902078E+02 0.24204011000E+02 0.30469554444E+02 0.39928630274E+02
 0.52880039178E+02 0.68438415350E+02 0.84968098141E+02 0.10078530300E+03 0.11458350830E+03
 0.12538707293E+03 0.13234519764E+03 0.13475945460E+03 0.13234520405E+03 0.12538708252E+03
 0.89955207460E+02 0.76976610694E+02 0.63084563230E+02 0.49778498864E+02 0.38479900544E+02
 0.30004639836E+02 0.24204012090E+02 0.20148995150E+02 0.17268731105E+02 0.15239847260E+02
 0.13751917502E+02 0.12593736671E+02 0.11658014499E+02 0.10907872542E+02 0.10339382425E+02
 0.99572935334E+01 0.97654629920E+01 0.97654634011E+01 0.99572943481E+01 0.10339382817E+02
 0.10907872112E+02 0.11658013738E+02 0.12593736570E+02 0.13751918596E+02 0.15239848997E+02
 0.17268732198E+02 0.20148994737E+02 0.24204010744E+02 0.30004639463E+02 0.38479903071E+02
 0.49778504614E+02 0.63084570325E+02 0.76976616076E+02 0.89955208930E+02 0.10078530300E+03
 0.10855321939E+03 0.11261505261E+03 0.11261505419E+03 0.10855322280E+03 0.10078530523E+03
 0.66910774866E+02 0.55863926675E+02 0.45111964682E+02 0.35828381186E+02 0.28694363083E+02
 0.23627868400E+02 0.19943902430E+02 0.17268731105E+02 0.15346132851E+02 0.13910324424E+02
 0.12768500109E+02 0.11815949513E+02 0.11014978404E+02 0.10365344559E+02 0.98817433408E+01
 0.95817556410E+01 0.94798815667E+01 0.95817562898E+01 0.98817439919E+01 0.10365344541E+02
 0.11014977703E+02 0.11815948872E+02 0.12768500414E+02 0.13910325874E+02 0.15346134648E+02
 0.17268732015E+02 0.19943901832E+02 0.23627866987E+02 0.28694362607E+02 0.35828383348E+02
 0.45111969968E+02 0.55863933980E+02 0.66910782179E+02 0.76976616076E+02 0.84968098141E+02
 0.90086765064E+02 0.91847620914E+02 0.90086763703E+02 0.84968094853E+02 0.76976610471E+02
 0.47678175259E+02 0.39554089763E+02 0.32408540842E+02 0.26764589176E+02 0.22559569814E+02
 0.19358016581E+02 0.16983660194E+02 0.15239847260E+02 0.13910324424E+02 0.12828758810E+02
 0.11898480271E+02 0.11081601239E+02 0.10378065372E+02 0.98071092545E+01 0.93986845206E+01
 0.91843247441E+01 0.91843249352E+01 0.93986849079E+01 0.98071094423E+01 0.10378065110E+02
 0.11081600678E+02 0.11898479902E+02 0.12828759098E+02 0.13910325399E+02 0.15239848388E+02
 0.16983660650E+02 0.19358015788E+02 0.22559567897E+02 0.26764587045E+02 0.32408539813E+02
 0.39554090926E+02 0.47678178913E+02 0.55863933980E+02 0.63084570325E+02 0.68438415350E+02
 0.71281121814E+02 0.71281120189E+02 0.68438410983E+02 0.63084564559E+02 0.55863928533E+02
 0.33871291188E+02 0.28732883816E+02 0.24506586517E+02 0.21138586596E+02 0.18472168808E+02
 0.16451891576E+02 0.14934189811E+02 0.13751917502E+02 0.12768500109E+02 0.11898480271E+02
 0.11104235793E+02 0.10382809687E+02 0.97524544182E+01 0.92497645249E+01 0.89213158551E+01
 0.88066425332E+01 0.89213157325E+01 0.92497643862E+01 0.97524543407E+01 0.10382809607E+02
 0.11104235566E+02 0.11898479870E+02 0.12768499754E+02 0.13751917514E+02 0.14934190232E+02
 0.16451891879E+02 0.18472168014E+02 0.21138583874E+02 0.24506581913E+02 0.28732878540E+02
 0.33871287129E+02 0.39554090926E+02 0.45111969968E+02 0.49778504614E+02 0.52880039178E+02
 0.53966281901E+02 0.52880036895E+02 0.49778501628E+02 0.45111968437E+02 0.39554092262E+02
 0.25244756246E+02 0.22172790220E+02 0.19537396759E+02 0.17399195045E+02 0.15740668018E+02
 0.14465692400E+02 0.13452485135E+02 0.12593736671E+02 0.11815949513E+02 0.11081601239E+02
 0.10382809687E+02 0.97324325355E+01 0.91661099166E+01 0.87385937911E+01 0.85066245158E+01
 0.85066241976E+01 0.87385931288E+01 0.91661095039E+01 0.97324326830E+01 0.10382810096E+02
 0.11081601265E+02 0.11815948815E+02 0.12593735633E+02 0.13452484616E+02 0.14465692916E+02
 0.15740669040E+02 0.17399195067E+02 0.19537394245E+02 0.22172784776E+02 0.25244749122E+02
 0.28732878540E+02 0.32408539813E+02 0.35828383348E+02 0.38479903071E+02 0.39928630274E+02
 0.39928629894E+02 0.38479902688E+02 0.35828384615E+02 0.32408543908E+02 0.28732885089E+02
 0.19926604503E+02 0.17925800832E+02 0.16259007566E+02 0.14930891680E+02 0.13886368103E+02
 0.13043448567E+02 0.12321456667E+02 0.11658014499E+02 0.11014978404E+02 0.10378065372E+02
 0.97524544182E+01 0.91661099166E+01 0.86730785073E+01 0.83397225918E+01 0.82213951116E+01
 0.83397217942E+01 0.86730776374E+01 0.91661097686E+01 0.97524551227E+01 0.10378066251E+02
 0.11014978569E+02 0.11658013704E+02 0.12321455652E+02 0.13043448541E+02 0.13886369714E+02
 0.14930894309E+02 0.16259009548E+02 0.17925800522E+02 0.19926601399E+02 0.22172784776E+02
 0.24506581913E+02 0.26764587045E+02 0.28694362607E+02 0.30004639463E+02 0.30469554444E+02
 0.30004639936E+02 0.28694364251E+02 0.26764590479E+02 0.24506586807E+02 0.22172789679E+02
 0.16438458172E+02 0.15155799089E+02 0.14101544784E+02 0.13254141559E+02 0.12565082236E+02
 0.11977091204E+02 0.11437803204E+02 0.10907872542E+02 0.10365344559E+02 0.98071092545E+01
 0.92497645249E+01 0.87385937911E+01 0.83397225918E+01 0.81194386475E+01 0.81194382181E+01
 0.83397216837E+01 0.87385932250E+01 0.92497648710E+01 0.98071103441E+01 0.10365345616E+02
 0.10907872849E+02 0.11437802766E+02 0.11977090868E+02 0.12565083132E+02 0.13254144271E+02
 0.14101548859E+02 0.15155803257E+02 0.16438461101E+02 0.17925800522E+02 0.19537394245E+02
 0.21138583874E+02 0.22559567897E+02 0.23627866987E+02 0.24204010744E+02 0.24204011000E+02
 0.23627867785E+02 0.22559569173E+02 0.21138585206E+02 0.19537394811E+02 0.17925799478E+02
 0.14162982691E+02 0.13317819693E+02 0.12624316862E+02 0.12061187177E+02 0.11591679011E+02
 0.11173159628E+02 0.10765634076E+02 0.10339382425E+02 0.98817433408E+01 0.93986845206E+01
 0.89213158551E+01 0.85066245158E+01 0.82213951116E+01 0.81194382181E+01 0.82213945940E+01
 0.85066238886E+01 0.89213156389E+01 0.93986849700E+01 0.98817442546E+01 0.10339383288E+02
 0.10765634447E+02 0.11173159505E+02 0.11591678929E+02 0.12061187954E+02 0.12624319140E+02
 0.13317823551E+02 0.14162987543E+02 0.15155803257E+02 0.16259009548E+02 0.17399195067E+02
 0.18472168014E+02 0.19358015788E+02 0.19943901832E+02 0.20148994737E+02 0.19943902078E+02
 0.19358015814E+02 0.18472167128E+02 0.17399192725E+02 0.16259005684E+02 0.15155798412E+02
 0.12624392693E+02 0.12043186036E+02 0.11574310906E+02 0.11199242615E+02 0.10885963409E+02
 0.10596159715E+02 0.10294282317E+02 0.99572935334E+01 0.95817556410E+01 0.91843247441E+01
 0.88066425332E+01 0.85066241976E+01 0.83397217942E+01 0.83397216837E+01 0.85066238886E+01
 0.88066421153E+01 0.91843243939E+01 0.95817555563E+01 0.99572937756E+01 0.10294282679E+02
 0.10596159774E+02 0.10885962814E+02 0.11199241434E+02 0.11574309772E+02 0.12043185899E+02
 0.12624394263E+02 0.13317823551E+02 0.14101548859E+02 0.14930894309E+02 0.15740669040E+02
 0.16451891879E+02 0.16983660650E+02 0.17268732015E+02 0.17268732198E+02 0.16983660817E+02
 0.16451891175E+02 0.15740666820E+02 0.14930890698E+02 0.14101544801E+02 0.13317820305E+02
 0.11543478389E+02 0.11141159727E+02 0.10833819039E+02 0.10601601541E+02 0.10411762784E+02
 0.10227055613E+02 0.10016507518E+02 0.97654629920E+01 0.94798815667E+01 0.91843249352E+01
 0.89213157325E+01 0.87385931288E+01 0.86730776374E+01 0.87385932250E+01 0.89213156389E+01
 0.91843243939E+01 0.94798806650E+01 0.97654621483E+01 0.10016507097E+02 0.10227055492E+02
 0.10411762290E+02 0.10601599900E+02 0.10833816036E+02 0.11141156051E+02 0.11543475329E+02
 0.12043185899E+02 0.12624319140E+02 0.13254144271E+02 0.13886369714E+02 0.14465692916E+02
 0.14934190232E+02 0.15239848388E+02 0.15346134648E+02 0.15239848997E+02 0.14934190740E+02
 0.14465692533E+02 0.13886368323E+02 0.13254142678E+02 0.12624318598E+02 0.12043187247E+02
 0.10787819155E+02 0.10525334314E+02 0.10347212392E+02 0.10230646219E+02 0.10142400497E+02
 0.10048521360E+02 0.99250034084E+01 0.97654634011E+01 0.95817562898E+01 0.93986849079E+01
 0.92497643862E+01 0.91661095039E+01 0.91661097686E+01 0.92497648710E+01 0.93986849700E+01
 0.95817555563E+01 0.97654621483E+01 0.99250023541E+01 0.10048521012E+02 0.10142400603E+02
 0.10230645813E+02 0.10347210467E+02 0.10525330616E+02 0.10787814478E+02 0.11141156051E+02
 0.11574309772E+02 0.12061187954E+02 0.12565083132E+02 0.13043448541E+02 0.13452484616E+02
 0.13751917514E+02 0.13910325399E+02 0.13910325874E+02 0.13751918596E+02 0.13452485597E+02
 0.13043449033E+02 0.12565083517E+02 0.12061189173E+02 0.11574312582E+02 0.11141160330E+02
 0.10294437834E+02 0.10147772947E+02 0.10075863383E+02 0.10055335730E+02 0.10055652464E+02
 0.10048521247E+02 0.10016507940E+02 0.99572943481E+01 0.98817439919E+01 0.98071094423E+01
 0.97524543407E+01 0.97324326830E+01 0.97524551227E+01 0.98071103441E+01 0.98817442546E+01
 0.99572937756E+01 0.10016507097E+02 0.10048521012E+02 0.10055653285E+02 0.10055337176E+02
 0.10075864366E+02 0.10147772468E+02 0.10294435673E+02 0.10525330616E+02 0.10833816036E+02
 0.11199241434E+02 0.11591678929E+02 0.11977090868E+02 0.12321455652E+02 0.12593735633E+02
 0.12768499754E+02 0.12828759098E+02 0.12768500414E+02 0.12593736570E+02 0.12321456488E+02
 0.11977091645E+02 0.11591680136E+02 0.11199243575E+02 0.10833819067E+02 0.10525333763E+02
 0.10020685484E+02 0.99709752882E+01 0.99894734210E+01 0.10055334861E+02 0.10142399535E+02
 0.10227055373E+02 0.10294282724E+02 0.10339382817E+02 0.10365344541E+02 0.10378065110E+02
 0.10382809607E+02 0.10382810096E+02 0.10378066251E+02 0.10365345616E+02 0.10339383288E+02
 0.10294282679E+02 0.10227055492E+02 0.10142400603E+02 0.10055337176E+02 0.99894765343E+01
 0.99709782591E+01 0.10020687444E+02 0.10147772468E+02 0.10347210467E+02 0.10601599900E+02
 0.10885962814E+02 0.11173159505E+02 0.11437802766E+02 0.11658013704E+02 0.11815948815E+02
 0.11898479870E+02 0.11898479902E+02 0.11815948872E+02 0.11658013738E+02 0.11437802838E+02
 0.11173159788E+02 0.10885963423E+02 0.10601600659E+02 0.10347210849E+02 0.10147771836E+02
 0.99337969186E+01 0.99709747352E+01 0.10075861850E+02 0.10230644467E+02 0.10411761803E+02
 0.10596159580E+02 0.10765634058E+02 0.10907872112E+02 0.11014977703E+02 0.11081600678E+02
 0.11104235566E+02 0.11081601265E+02 0.11014978569E+02 0.10907872849E+02 0.10765634447E+02
 0.10596159774E+02 0.10411762290E+02 0.10230645813E+02 0.10075864366E+02 0.99709782591E+01
 0.99338008391E+01 0.99709782591E+01 0.10075864366E+02 0.10230645813E+02 0.10411762290E+02
 0.10596159774E+02 0.10765634447E+02 0.10907872849E+02 0.11014978569E+02 0.11081601265E+02
 0.11104235566E+02 0.11081600678E+02 0.11014977703E+02 0.10907872112E+02 0.10765634058E+02
 0.10596159580E+02 0.10411761803E+02 0.10230644467E+02 0.10075861850E+02 0.99709747352E+01
 0.10020685484E+02 0.10147771836E+02 0.10347210849E+02 0.10601600659E+02 0.10885963423E+02
 0.11173159788E+02 0.11437802838E+02 0.11658013738E+02 0.11815948872E+02 0.11898479902E+02
 0.11898479870E+02 0.11815948815E+02 0.11658013704E+02 0.11437802766E+02 0.11173159505E+02
 0.10885962814E+02 0.10601599900E+02 0.10347210467E+02 0.10147772468E+02 0.10020687444E+02
 0.99709782591E+01 0.99894765343E+01 0.10055337176E+02 0.10142400603E+02 0.10227055492E+02
 0.10294282679E+02 0.10339383288E+02 0.10365345616E+02 0.10378066251E+02 0.10382810096E+02
 0.10382809607E+02 0.10378065110E+02 0.10365344541E+02 0.10339382817E+02 0.10294282724E+02
 0.10227055373E+02 0.10142399535E+02 0.10055334861E+02 0.99894734210E+01 0.99709752882E+01
 0.10294437834E+02 0.10525333763E+02 0.10833819067E+02 0.11199243575E+02 0.11591680136E+02
 0.11977091645E+02 0.12321456488E+02 0.12593736570E+02 0.12768500414E+02 0.12828759098E+02
 0.12768499754E+02 0.12593735633E+02 0.12321455652E+02 0.11977090868E+02 0.11591678929E+02
 0.11199241434E+02 0.10833816036E+02 0.10525330616E+02 0.10294435673E+02 0.10147772468E+02
 0.10075864366E+02 0.10055337176E+02 0.10055653285E+02 0.10048521012E+02 0.10016507097E+02
 0.99572937756E+01 0.98817442546E+01 0.98071103441E+01 0.97524551227E+01 0.97324326830E+01
 0.97524543407E+01 0.98071094423E+01 0.98817439919E+01 0.99572943481E+01 0.10016507940E+02
 0.10048521247E+02 0.10055652464E+02 0.10055335730E+02 0.10075863383E+02 0.10147772947E+02
 0.10787819155E+02 0.11141160330E+02 0.11574312582E+02 0.12061189173E+02 0.12565083517E+02
 0.13043449033E+02 0.13452485597E+02 0.13751918596E+02 0.13910325874E+02 0.13910325399E+02
 0.13751917514E+02 0.13452484616E+02 0.13043448541E+02 0.12565083132E+02 0.12061187954E+02
 0.11574309772E+02 0.11141156051E+02 0.10787814478E+02 0.10525330616E+02 0.10347210467E+02
 0.10230645813E+02 0.10142400603E+02 0.10048521012E+02 0.99250023541E+01 0.97654621483E+01
 0.95817555563E+01 0.93986849700E+01 0.92497648710E+01 0.91661097686E+01 0.91661095039E+01
 0.92497643862E+01 0.93986849079E+01 0.95817562898E+01 0.97654634011E+01 0.99250034084E+01
 0.10048521360E+02 0.10142400497E+02 0.10230646219E+02 0.10347212392E+02 0.10525334314E+02
 0.11543478389E+02 0.12043187247E+02 0.12624318598E+02 0.13254142678E+02 0.13886368323E+02
 0.14465692533E+02 0.14934190740E+02 0.15239848997E+02 0.15346134648E+02 0.15239848388E+02
 0.14934190232E+02 0.14465692916E+02 0.13886369714E+02 0.13254144271E+02 0.12624319140E+02
 0.12043185899E+02 0.11543475329E+02 0.11141156051E+02 0.10833816036E+02 0.10601599900E+02
 0.10411762290E+02 0.10227055492E+02 0.10016507097E+02 0.97654621483E+01 0.94798806650E+01
 0.91843243939E+01 0.89213156389E+01 0.87385932250E+01 0.86730776374E+01 0.87385931288E+01
 0.89213157325E+01 0.91843249352E+01 0.94798815667E+01 0.97654629920E+01 0.10016507518E+02
 0.10227055613E+02 0.10411762784E+02 0.10601601541E+02 0.10833819039E+02 0.11141159727E+02
 0.12624392693E+02 0.13317820305E+02 0.14101544801E+02 0.14930890698E+02 0.15740666820E+02
 0.16451891175E+02 0.16983660817E+02 0.17268732198E+02 0.17268732015E+02 0.16983660650E+02
 0.16451891879E+02 0.15740669040E+02 0.14930894309E+02 0.14101548859E+02 0.13317823551E+02
 0.12624394263E+02 0.12043185899E+02 0.11574309772E+02 0.11199241434E+02 0.10885962814E+02
 0.10596159774E+02 0.10294282679E+02 0.99572937756E+01 0.95817555563E+01 0.91843243939E+01
 0.88066421153E+01 0.85066238886E+01 0.83397216837E+01 0.83397217942E+01 0.85066241976E+01
 0.88066425332E+01 0.91843247441E+01 0.95817556410E+01 0.99572935334E+01 0.10294282317E+02
 0.10596159715E+02 0.10885963409E+02 0.11199242615E+02 0.11574310906E+02 0.12043186036E+02
 0.14162982691E+02 0.15155798412E+02 0.16259005684E+02 0.17399192725E+02 0.18472167128E+02
 0.19358015814E+02 0.19943902078E+02 0.20148994737E+02 0.19943901832E+02 0.19358015788E+02
 0.18472168014E+02 0.17399195067E+02 0.16259009548E+02 0.15155803257E+02 0.14162987543E+02
 0.13317823551E+02 0.12624319140E+02 0.12061187954E+02 0.11591678929E+02 0.11173159505E+02
 0.10765634447E+02 0.10339383288E+02 0.98817442546E+01 0.93986849700E+01 0.89213156389E+01
 0.85066238886E+01 0.82213945940E+01 0.81194382181E+01 0.82213951116E+01 0.85066245158E+01
 0.89213158551E+01 0.93986845206E+01 0.98817433408E+01 0.10339382425E+02 0.10765634076E+02
 0.11173159628E+02 0.11591679011E+02 0.12061187177E+02 0.12624316862E+02 0.13317819693E+02
 0.16438458172E+02 0.17925799478E+02 0.19537394811E+02 0.21138585206E+02 0.22559569173E+02
 0.23627867785E+02 0.24204011000E+02 0.24204010744E+02 0.23627866987E+02 0.22559567897E+02
 0.21138583874E+02 0.19537394245E+02 0.17925800522E+02 0.16438461101E+02 0.15155803257E+02
 0.14101548859E+02 0.13254144271E+02 0.12565083132E+02 0.11977090868E+02 0.11437802766E+02
 0.10907872849E+02 0.10365345616E+02 0.98071103441E+01 0.92497648710E+01 0.87385932250E+01
 0.83397216837E+01 0.81194382181E+01 0.81194386475E+01 0.83397225918E+01 0.87385937911E+01
 0.92497645249E+01 0.98071092545E+01 0.10365344559E+02 0.10907872542E+02 0.11437803204E+02
 0.11977091204E+02 0.12565082236E+02 0.13254141559E+02 0.14101544784E+02 0.15155799089E+02
 0.19926604503E+02 0.22172789679E+02 0.24506586807E+02 0.26764590479E+02 0.28694364251E+02
 0.30004639936E+02 0.30469554444E+02 0.30004639463E+02 0.28694362607E+02 0.26764587045E+02
 0.24506581913E+02 0.22172784776E+02 0.19926601399E+02 0.17925800522E+02 0.16259009548E+02
 0.14930894309E+02 0.13886369714E+02 0.13043448541E+02 0.12321455652E+02 0.11658013704E+02
 0.11014978569E+02 0.10378066251E+02 0.97524551227E+01 0.91661097686E+01 0.86730776374E+01
 0.83397217942E+01 0.82213951116E+01 0.83397225918E+01 0.86730785073E+01 0.91661099166E+01
 0.97524544182E+01 0.10378065372E+02 0.11014978404E+02 0.11658014499E+02 0.12321456667E+02
 0.13043448567E+02 0.13886368103E+02 0.14930891680E+02 0.16259007566E+02 0.17925800832E+02
 0.25244756246E+02 0.28732885089E+02 0.32408543908E+02 0.35828384615E+02 0.38479902688E+02
 0.39928629894E+02 0.39928630274E+02 0.38479903071E+02 0.35828383348E+02 0.32408539813E+02
 0.28732878540E+02 0.25244749122E+02 0.22172784776E+02 0.19537394245E+02 0.17399195067E+02
 0.15740669040E+02 0.14465692916E+02 0.13452484616E+02 0.12593735633E+02 0.11815948815E+02
 0.11081601265E+02 0.10382810096E+02 0.97324326830E+01 0.91661095039E+01 0.87385931288E+01
 0.85066241976E+01 0.85066245158E+01 0.87385937911E+01 0.91661099166E+01 0.97324325355E+01
 0.10382809687E+02 0.11081601239E+02 0.11815949513E+02 0.12593736671E+02 0.13452485135E+02
 0.14465692400E+02 0.15740668018E+02 0.17399195045E+02 0.19537396759E+02 0.22172790220E+02
 0.33871291188E+02 0.39554092262E+02 0.45111968437E+02 0.49778501628E+02 0.52880036895E+02
 0.53966281901E+02 0.52880039178E+02 0.49778504614E+02 0.45111969968E+02 0.39554090926E+02
 0.33871287129E+02 0.28732878540E+02 0.24506581913E+02 0.21138583874E+02 0.18472168014E+02
 0.16451891879E+02 0.14934190232E+02 0.13751917514E+02 0.12768499754E+02 0.11898479870E+02
 0.11104235566E+02 0.10382809607E+02 0.97524543407E+01 0.92497643862E+01 0.89213157325E+01
 0.88066425332E+01 0.89213158551E+01 0.92497645249E+01 0.97524544182E+01 0.10382809687E+02
 0.11104235793E+02 0.11898480271E+02 0.12768500109E+02 0.13751917502E+02 0.14934189811E+02
 0.16451891576E+02 0.18472168808E+02 0.21138586596E+02 0.24506586517E+02 0.28732883816E+02
 0.47678175259E+02 0.55863928533E+02 0.63084564559E+02 0.68438410983E+02 0.71281120189E+02
 0.71281121814E+02 0.68438415350E+02 0.63084570325E+02 0.55863933980E+02 0.47678178913E+02
 0.39554090926E+02 0.32408539813E+02 0.26764587045E+02 0.22559567897E+02 0.19358015788E+02
 0.16983660650E+02 0.15239848388E+02 0.13910325399E+02 0.12828759098E+02 0.11898479902E+02
 0.11081600678E+02 0.10378065110E+02 0.98071094423E+01 0.93986849079E+01 0.91843249352E+01
 0.91843247441E+01 0.93986845206E+01 0.98071092545E+01 0.10378065372E+02 0.11081601239E+02
 0.11898480271E+02 0.12828758810E+02 0.13910324424E+02 0.15239847260E+02 0.16983660194E+02
 0.19358016581E+02 0.22559569814E+02 0.26764589176E+02 0.32408540842E+02 0.39554089763E+02
 0.66910774866E+02 0.76976610471E+02 0.84968094853E+02 0.90086763703E+02 0.91847620914E+02
 0.90086765064E+02 0.84968098141E+02 0.76976616076E+02 0.66910782179E+02 0.55863933980E+02
 0.45111969968E+02 0.35828383348E+02 0.28694362607E+02 0.23627866987E+02 0.19943901832E+02
 0.17268732015E+02 0.15346134648E+02 0.13910325874E+02 0.12768500414E+02 0.11815948872E+02
 0.11014977703E+02 0.10365344541E+02 0.98817439919E+01 0.95817562898E+01 0.94798815667E+01
 0.95817556410E+01 0.98817433408E+01 0.10365344559E+02 0.11014978404E+02 0.11815949513E+02
 0.12768500109E+02 0.13910324424E+02 0.15346132851E+02 0.17268731105E+02 0.19943902430E+02
 0.23627868400E+02 0.28694363083E+02 0.35828381186E+02 0.45111964682E+02 0.55863926675E+02
 0.89955207460E+02 0.10078530523E+03 0.10855322280E+03 0.11261505419E+03 0.11261505261E+03
 0.10855321939E+03 0.10078530300E+03 0.89955208930E+02 0.76976616076E+02 0.63084570325E+02
 0.49778504614E+02 0.38479903071E+02 0.30004639463E+02 0.24204010744E+02 0.20148994737E+02
 0.17268732198E+02 0.15239848997E+02 0.13751918596E+02 0.12593736570E+02 0.11658013738E+02
 0.10907872112E+02 0.10339382817E+02 0.99572943481E+01 0.97654634011E+01 0.97654629920E+01
 0.99572935334E+01 0.10339382425E+02 0.10907872542E+02 0.11658014499E+02 0.12593736671E+02
 0.13751917502E+02 0.15239847260E+02 0.17268731105E+02 0.20148995150E+02 0.24204012090E+02
 0.30004639836E+02 0.38479900544E+02 0.49778498864E+02 0.63084563230E+02 0.76976610694E+02
 0.11458351657E+03 0.12538708252E+03 0.13234520405E+03 0.13475945460E+03 0.13234519764E+03
 0.12538707293E+03 0.11458350830E+03 0.10078530300E+03 0.84968098141E+02 0.68438415350E+02
 0.52880039178E+02 0.39928630274E+02 0.30469554444E+02 0.24204011000E+02 0.19943902078E+02
 0.16983660817E+02 0.14934190740E+02 0.13452485597E+02 0.12321456488E+02 0.11437802838E+02
 0.10765634058E+02 0.10294282724E+02 0.10016507940E+02 0.99250034084E+01 0.10016507518E+02
 0.10294282317E+02 0.10765634076E+02 0.11437803204E+02 0.12321456667E+02 0.13452485135E+02
 0.14934189811E+02 0.16983660194E+02 0.19943902430E+02 0.24204012090E+02 0.30469555016E+02
 0.39928628950E+02 0.52880035796E+02 0.68438411657E+02 0.84968097060E+02 0.10078530675E+03
 0.13966771874E+03 0.15034536050E+03 0.15615360055E+03 0.15615359767E+03 0.15034535285E+03
 0.13966770885E+03 0.12538707293E+03 0.10855321939E+03 0.90086765064E+02 0.71281121814E+02
 0.53966281901E+02 0.39928629894E+02 0.30004639936E+02 0.23627867785E+02 0.19358015814E+02
 0.16451891175E+02 0.14465692533E+02 0.13043449033E+02 0.11977091645E+02 0.11173159788E+02
 0.10596159580E+02 0.10227055373E+02 0.10048521247E+02 0.10048521360E+02 0.10227055613E+02
 0.10596159715E+02 0.11173159628E+02 0.11977091204E+02 0.13043448567E+02 0.14465692400E+02
 0.16451891576E+02 0.19358016581E+02 0.23627868400E+02 0.30004639836E+02 0.39928628950E+02
 0.53966280775E+02 0.71281121888E+02 0.90086767860E+02 0.10855322570E+03 0.12538708211E+03
 0.16556139214E+03 0.17610022843E+03 0.17991333426E+03 0.17610022959E+03 0.16556139287E+03
 0.15034535285E+03 0.13234519764E+03 0.11261505261E+03 0.91847620914E+02 0.71281120189E+02
 0.52880036895E+02 0.38479902688E+02 0.28694364251E+02 0.22559569173E+02 0.18472167128E+02
 0.15740666820E+02 0.13886368323E+02 0.12565083517E+02 0.11591680136E+02 0.10885963423E+02
 0.10411761803E+02 0.10142399535E+02 0.10055652464E+02 0.10142400497E+02 0.10411762784E+02
 0.10885963409E+02 0.11591679011E+02 0.12565082236E+02 0.13886368103E+02 0.15740668018E+02
 0.18472168808E+02 0.22559569814E+02 0.28694363083E+02 0.38479900544E+02 0.52880035796E+02
 0.71281121888E+02 0.91847625503E+02 0.11261505831E+03 0.13234520199E+03 0.15034535441E+03
 0.19241991416E+03 0.20183403623E+03 0.20183404164E+03 0.19241992745E+03 0.17610022959E+03
 0.15615359767E+03 0.13475945460E+03 0.11261505419E+03 0.90086763703E+02 0.68438410983E+02
 0.49778501628E+02 0.35828384615E+02 0.26764590479E+02 0.21138585206E+02 0.17399192725E+02
 0.14930890698E+02 0.13254142678E+02 0.12061189173E+02 0.11199243575E+02 0.10601600659E+02
 0.10230644467E+02 0.10055334861E+02 0.10055335730E+02 0.10230646219E+02 0.10601601541E+02
 0.11199242615E+02 0.12061187177E+02 0.13254141559E+02 0.14930891680E+02 0.17399195045E+02
 0.21138586596E+02 0.26764589176E+02 0.35828381186E+02 0.49778498864E+02 0.68438411657E+02
 0.90086767860E+02 0.11261505831E+03 0.13475945368E+03 0.15615358899E+03 0.17610021537E+03
 0.21794718921E+03 0.22394327801E+03 0.21794720394E+03 0.20183404164E+03 0.17991333426E+03
 0.15615360055E+03 0.13234520405E+03 0.10855322280E+03 0.84968094853E+02 0.63084564559E+02
 0.45111968437E+02 0.32408543908E+02 0.24506586807E+02 0.19537394811E+02 0.16259005684E+02
 0.14101544801E+02 0.12624318598E+02 0.11574312582E+02 0.10833819067E+02 0.10347210849E+02
 0.10075861850E+02 0.99894734210E+01 0.10075863383E+02 0.10347212392E+02 0.10833819039E+02
 0.11574310906E+02 0.12624316862E+02 0.14101544784E+02 0.16259007566E+02 0.19537396759E+02
 0.24506586517E+02 0.32408540842E+02 0.45111964682E+02 0.63084563230E+02 0.84968097060E+02
 0.10855322570E+03 0.13234520199E+03 0.15615358899E+03 0.17991331385E+03 0.20183401920E+03
 0.23703120524E+03 0.23703121099E+03 0.22394327801E+03 0.20183403623E+03 0.17610022843E+03
 0.15034536050E+03 0.12538708252E+03 0.10078530523E+03 0.76976610471E+02 0.55863928533E+02
 0.39554092262E+02 0.28732885089E+02 0.22172789679E+02 0.17925799478E+02 0.15155798412E+02
 0.13317820305E+02 0.12043187247E+02 0.11141160330E+02 0.10525333763E+02 0.10147771836E+02
 0.99709747352E+01 0.99709752882E+01 0.10147772947E+02 0.10525334314E+02 0.11141159727E+02
 0.12043186036E+02 0.13317819693E+02 0.15155799089E+02 0.17925800832E+02 0.22172790220E+02
 0.28732883816E+02 0.39554089763E+02 0.55863926675E+02 0.76976610694E+02 0.10078530675E+03
 0.12538708211E+03 0.15034535441E+03 0.17610021537E+03 0.20183401920E+03 0.22394326342E+03
 0.23703120524E+03 0.22394326342E+03 0.20183401920E+03 0.17610021537E+03 0.15034535441E+03
 0.12538708211E+03 0.10078530675E+03 0.76976610694E+02 0.55863926675E+02 0.39554089763E+02
 0.28732883816E+02 0.22172790220E+02 0.17925800832E+02 0.15155799089E+02 0.13317819693E+02
 0.12043186036E+02 0.11141159727E+02 0.10525334314E+02 0.10147772947E+02 0.99709752882E+01
 0.99709747352E+01 0.10147771836E+02 0.10525333763E+02 0.11141160330E+02 0.12043187247E+02
 0.13317820305E+02 0.15155798412E+02 0.17925799478E+02 0.22172789679E+02 0.28732885089E+02