   3   3   1   0
  0.2288542E+02  0.4596194E-09  0.4596194E-09  0.4596194E-09  0.5000000E-15
  1.000000000000000E-004
  CAR 
 AuAl2                                   
     16.28028429     -6.03640452  301      6.67134076      1.00000000
     -6.036  0.0000E+00  0.0000E+00
     -5.962  0.0000E+00  0.0000E+00
     -5.888  0.0000E+00  0.0000E+00
     -5.813  0.0000E+00  0.0000E+00
     -5.739  0.0000E+00  0.0000E+00
     -5.664 -0.2058E-31 -0.1531E-32
     -5.590 -0.7292E-29 -0.5439E-30
     -5.516 -0.1955E-26 -0.1460E-27
     -5.441 -0.3966E-24 -0.2965E-25
     -5.367 -0.6084E-22 -0.4555E-23
     -5.293 -0.7057E-20 -0.5295E-21
     -5.218 -0.5889E-18 -0.4434E-19
     -5.144 -0.3972E-16 -0.2999E-17
     -5.069 -0.1978E-14 -0.1501E-15
     -4.995 -0.7437E-13 -0.5682E-14
     -4.921 -0.2109E-11 -0.1625E-12
     -4.846 -0.4506E-10 -0.3514E-11
     -4.772 -0.7248E-09 -0.5743E-10
     -4.697 -0.8767E-08 -0.7096E-09
     -4.623 -0.7955E-07 -0.6627E-08
     -4.549 -0.5394E-06 -0.4676E-07
     -4.474 -0.2713E-05 -0.2486E-06
     -4.400 -0.9953E-05 -0.9890E-06
     -4.325 -0.2559E-04 -0.2893E-05
     -4.251 -0.4057E-04 -0.5910E-05
     -4.177 -0.1346E-04 -0.6912E-05
     -4.102  0.1252E-03  0.2401E-05
     -4.028  0.4162E-03  0.3336E-04
     -3.954  0.8169E-03  0.9413E-04
     -3.879  0.1236E-02  0.1861E-03
     -3.805  0.1609E-02  0.3058E-03
     -3.730  0.1898E-02  0.4469E-03
     -3.656  0.2098E-02  0.6030E-03
     -3.582  0.2293E-02  0.7736E-03
     -3.507  0.2567E-02  0.9646E-03
     -3.433  0.2826E-02  0.1175E-02
     -3.358  0.2938E-02  0.1393E-02
     -3.284  0.2993E-02  0.1616E-02
     -3.210  0.3181E-02  0.1853E-02
     -3.135  0.3519E-02  0.2114E-02
     -3.061  0.3861E-02  0.2402E-02
     -2.986  0.4032E-02  0.2702E-02
     -2.912  0.3963E-02  0.2996E-02
     -2.838  0.3875E-02  0.3285E-02
     -2.763  0.4153E-02  0.3594E-02
     -2.689  0.4808E-02  0.3951E-02
     -2.615  0.5343E-02  0.4349E-02
     -2.540  0.5397E-02  0.4750E-02
     -2.466  0.5204E-02  0.5137E-02
     -2.391  0.5224E-02  0.5526E-02
     -2.317  0.5589E-02  0.5942E-02
     -2.243  0.6178E-02  0.6401E-02
     -2.168  0.7008E-02  0.6923E-02
     -2.094  0.8111E-02  0.7526E-02
     -2.019  0.9072E-02  0.8201E-02
     -1.945  0.9382E-02  0.8899E-02
     -1.871  0.9133E-02  0.9578E-02
     -1.796  0.8765E-02  0.1023E-01
     -1.722  0.8544E-02  0.1087E-01
     -1.647  0.8708E-02  0.1151E-01
     -1.573  0.9369E-02  0.1221E-01
     -1.499  0.9978E-02  0.1295E-01
     -1.424  0.9595E-02  0.1367E-01
     -1.350  0.8098E-02  0.1427E-01
     -1.276  0.6582E-02  0.1476E-01
     -1.201  0.6264E-02  0.1522E-01
     -1.127  0.7271E-02  0.1577E-01
     -1.052  0.8608E-02  0.1641E-01
     -0.978  0.9328E-02  0.1710E-01
     -0.904  0.9694E-02  0.1782E-01
     -0.829  0.1079E-01  0.1862E-01
     -0.755  0.1358E-01  0.1963E-01
     -0.680  0.1904E-01  0.2105E-01
     -0.606  0.2817E-01  0.2315E-01
     -0.532  0.3986E-01  0.2611E-01
     -0.457  0.4909E-01  0.2976E-01
     -0.383  0.4957E-01  0.3345E-01
     -0.308  0.3978E-01  0.3641E-01
     -0.234  0.2529E-01  0.3829E-01
     -0.160  0.1459E-01  0.3938E-01
     -0.085  0.1405E-01  0.4042E-01
     -0.011  0.2707E-01  0.4243E-01
      0.063  0.5272E-01  0.4636E-01
      0.138  0.8100E-01  0.5238E-01
      0.212  0.9475E-01  0.5943E-01
      0.287  0.8472E-01  0.6573E-01
      0.361  0.6030E-01  0.7022E-01
      0.435  0.3915E-01  0.7313E-01
      0.510  0.3046E-01  0.7540E-01
      0.584  0.3259E-01  0.7782E-01
      0.659  0.4077E-01  0.8085E-01
      0.733  0.5200E-01  0.8472E-01
      0.807  0.6556E-01  0.8960E-01
      0.882  0.8104E-01  0.9563E-01
      0.956  0.9371E-01  0.1026E+00
      1.031  0.9366E-01  0.1096E+00
      1.105  0.7532E-01  0.1152E+00
      1.179  0.4636E-01  0.1186E+00
      1.254  0.2098E-01  0.1202E+00
      1.328  0.6842E-02  0.1207E+00
      1.402  0.2487E-02  0.1209E+00
      1.477  0.3308E-02  0.1211E+00
      1.551  0.5560E-02  0.1215E+00
      1.626  0.6981E-02  0.1221E+00
      1.700  0.6993E-02  0.1226E+00
      1.774  0.6765E-02  0.1231E+00
      1.849  0.7870E-02  0.1237E+00
      1.923  0.1029E-01  0.1244E+00
      1.998  0.1229E-01  0.1253E+00
      2.072  0.1253E-01  0.1263E+00
      2.146  0.1140E-01  0.1271E+00
      2.221  0.1013E-01  0.1279E+00
      2.295  0.9428E-02  0.1286E+00
      2.370  0.9205E-02  0.1293E+00
      2.444  0.8860E-02  0.1299E+00
      2.518  0.7882E-02  0.1305E+00
      2.593  0.6477E-02  0.1310E+00
      2.667  0.5551E-02  0.1314E+00
      2.741  0.5871E-02  0.1318E+00
      2.816  0.7161E-02  0.1324E+00
      2.890  0.8274E-02  0.1330E+00
      2.965  0.8443E-02  0.1336E+00
      3.039  0.7879E-02  0.1342E+00
      3.113  0.7077E-02  0.1347E+00
      3.188  0.6470E-02  0.1352E+00
      3.262  0.6745E-02  0.1357E+00
      3.337  0.8168E-02  0.1363E+00
      3.411  0.9561E-02  0.1370E+00
      3.485  0.9326E-02  0.1377E+00
      3.560  0.7635E-02  0.1383E+00
      3.634  0.6442E-02  0.1388E+00
      3.709  0.6987E-02  0.1393E+00
      3.783  0.8381E-02  0.1399E+00
      3.857  0.9245E-02  0.1406E+00
      3.932  0.9430E-02  0.1413E+00
      4.006  0.9352E-02  0.1420E+00
      4.080  0.8976E-02  0.1427E+00
      4.155  0.8032E-02  0.1433E+00
      4.229  0.6569E-02  0.1438E+00
      4.304  0.5448E-02  0.1442E+00
      4.378  0.6179E-02  0.1446E+00
      4.452  0.9376E-02  0.1453E+00
      4.527  0.1343E-01  0.1463E+00
      4.601  0.1571E-01  0.1475E+00
      4.676  0.1517E-01  0.1486E+00
      4.750  0.1300E-01  0.1496E+00
      4.824  0.1100E-01  0.1504E+00
      4.899  0.1007E-01  0.1511E+00
      4.973  0.1032E-01  0.1519E+00
      5.048  0.1135E-01  0.1528E+00
      5.122  0.1258E-01  0.1537E+00
      5.196  0.1359E-01  0.1547E+00
      5.271  0.1409E-01  0.1558E+00
      5.345  0.1358E-01  0.1568E+00
      5.419  0.1200E-01  0.1577E+00
      5.494  0.1032E-01  0.1584E+00
      5.568  0.9621E-02  0.1591E+00
      5.643  0.9934E-02  0.1599E+00
      5.717  0.1044E-01  0.1607E+00
      5.791  0.1058E-01  0.1614E+00
      5.866  0.1059E-01  0.1622E+00
      5.940  0.1091E-01  0.1630E+00
      6.015  0.1148E-01  0.1639E+00
      6.089  0.1185E-01  0.1648E+00
      6.163  0.1170E-01  0.1656E+00
      6.238  0.1088E-01  0.1665E+00
      6.312  0.9385E-02  0.1672E+00
      6.387  0.7652E-02  0.1677E+00
      6.461  0.6635E-02  0.1682E+00
      6.535  0.6975E-02  0.1687E+00
      6.610  0.8480E-02  0.1694E+00
      6.684  0.1048E-01  0.1701E+00
      6.758  0.1208E-01  0.1710E+00
      6.833  0.1220E-01  0.1719E+00
      6.907  0.1026E-01  0.1727E+00
      6.982  0.7166E-02  0.1732E+00
      7.056  0.4624E-02  0.1736E+00
      7.130  0.3565E-02  0.1739E+00
      7.205  0.3847E-02  0.1741E+00
      7.279  0.5025E-02  0.1745E+00
      7.354  0.6493E-02  0.1750E+00
      7.428  0.7351E-02  0.1755E+00
      7.502  0.6962E-02  0.1761E+00
      7.577  0.5509E-02  0.1765E+00
      7.651  0.3766E-02  0.1768E+00
      7.726  0.2419E-02  0.1769E+00
      7.800  0.1719E-02  0.1771E+00
      7.874  0.1792E-02  0.1772E+00
      7.949  0.2823E-02  0.1774E+00
      8.023  0.4449E-02  0.1777E+00
      8.097  0.5568E-02  0.1781E+00
      8.172  0.5633E-02  0.1786E+00
      8.246  0.5556E-02  0.1790E+00
      8.321  0.6355E-02  0.1795E+00
      8.395  0.7599E-02  0.1800E+00
      8.469  0.8259E-02  0.1806E+00
      8.544  0.8265E-02  0.1812E+00
      8.618  0.8353E-02  0.1819E+00
      8.693  0.9175E-02  0.1826E+00
      8.767  0.1085E-01  0.1834E+00
      8.841  0.1260E-01  0.1843E+00
      8.916  0.1333E-01  0.1853E+00
      8.990  0.1310E-01  0.1863E+00
      9.065  0.1320E-01  0.1872E+00
      9.139  0.1406E-01  0.1883E+00
      9.213  0.1493E-01  0.1894E+00
      9.288  0.1557E-01  0.1906E+00
      9.362  0.1656E-01  0.1918E+00
      9.436  0.1798E-01  0.1931E+00
      9.511  0.1901E-01  0.1945E+00
      9.585  0.1888E-01  0.1959E+00
      9.660  0.1793E-01  0.1973E+00
      9.734  0.1706E-01  0.1986E+00
      9.808  0.1611E-01  0.1998E+00
      9.883  0.1394E-01  0.2008E+00
      9.957  0.1052E-01  0.2016E+00
     10.032  0.7324E-02  0.2021E+00
     10.106  0.5429E-02  0.2025E+00
     10.180  0.4782E-02  0.2029E+00
     10.255  0.5270E-02  0.2033E+00
     10.329  0.7164E-02  0.2038E+00
     10.404  0.1070E-01  0.2046E+00
     10.478  0.1573E-01  0.2058E+00
     10.552  0.2088E-01  0.2073E+00
     10.627  0.2367E-01  0.2091E+00
     10.701  0.2276E-01  0.2108E+00
     10.776  0.1974E-01  0.2122E+00
     10.850  0.1737E-01  0.2135E+00
     10.924  0.1658E-01  0.2148E+00
     10.999  0.1643E-01  0.2160E+00
     11.073  0.1629E-01  0.2172E+00
     11.147  0.1642E-01  0.2184E+00
     11.222  0.1645E-01  0.2196E+00
     11.296  0.1545E-01  0.2208E+00
     11.371  0.1382E-01  0.2218E+00
     11.445  0.1325E-01  0.2228E+00
     11.519  0.1437E-01  0.2239E+00
     11.594  0.1576E-01  0.2251E+00
     11.668  0.1577E-01  0.2262E+00
     11.743  0.1429E-01  0.2273E+00
     11.817  0.1243E-01  0.2282E+00
     11.891  0.1146E-01  0.2291E+00
     11.966  0.1200E-01  0.2300E+00
     12.040  0.1342E-01  0.2310E+00
     12.115  0.1396E-01  0.2320E+00
     12.189  0.1253E-01  0.2329E+00
     12.263  0.1011E-01  0.2337E+00
     12.338  0.8364E-02  0.2343E+00
     12.412  0.7657E-02  0.2349E+00
     12.486  0.7276E-02  0.2354E+00
     12.561  0.6812E-02  0.2359E+00
     12.635  0.6395E-02  0.2364E+00
     12.710  0.5939E-02  0.2368E+00
     12.784  0.5144E-02  0.2372E+00
     12.858  0.4198E-02  0.2375E+00
     12.933  0.3584E-02  0.2378E+00
     13.007  0.3215E-02  0.2380E+00
     13.082  0.2581E-02  0.2382E+00
     13.156  0.1673E-02  0.2384E+00
     13.230  0.1045E-02  0.2384E+00
     13.305  0.1043E-02  0.2385E+00
     13.379  0.1418E-02  0.2386E+00
     13.454  0.1726E-02  0.2387E+00
     13.528  0.1875E-02  0.2389E+00
     13.602  0.2044E-02  0.2390E+00
     13.677  0.2200E-02  0.2392E+00
     13.751  0.2091E-02  0.2394E+00
     13.825  0.1654E-02  0.2395E+00
     13.900  0.1097E-02  0.2396E+00
     13.974  0.6573E-03  0.2396E+00
     14.049  0.4964E-03  0.2396E+00
     14.123  0.6877E-03  0.2397E+00
     14.197  0.1087E-02  0.2398E+00
     14.272  0.1316E-02  0.2399E+00
     14.346  0.1104E-02  0.2400E+00
     14.421  0.5954E-03  0.2400E+00
     14.495  0.1534E-03  0.2400E+00
     14.569 -0.4090E-04  0.2400E+00
     14.644 -0.5933E-04  0.2400E+00
     14.718 -0.2948E-04  0.2400E+00
     14.793 -0.9110E-05  0.2400E+00
     14.867 -0.1947E-05  0.2400E+00
     14.941 -0.2992E-06  0.2400E+00
     15.016 -0.3369E-07  0.2400E+00
     15.090 -0.2810E-08  0.2400E+00
     15.164 -0.1747E-09  0.2400E+00
     15.239 -0.8131E-11  0.2400E+00
     15.313 -0.2841E-12  0.2400E+00
     15.388 -0.7469E-14  0.2400E+00
     15.462 -0.1479E-15  0.2400E+00
     15.536 -0.2149E-17  0.2400E+00
     15.611  0.0000E+00  0.2400E+00
     15.685  0.0000E+00  0.2400E+00
     15.760  0.0000E+00  0.2400E+00
     15.834  0.0000E+00  0.2400E+00
     15.908  0.0000E+00  0.2400E+00
     15.983  0.0000E+00  0.2400E+00
     16.057  0.0000E+00  0.2400E+00
     16.132  0.0000E+00  0.2400E+00
     16.206  0.0000E+00  0.2400E+00
     16.280  0.0000E+00  0.2400E+00
     16.28028429     -6.03640452  301      6.67134076      1.00000000
     -6.036  0.0000E+00  0.0000E+00  0.0000E+00
     -5.962  0.0000E+00  0.0000E+00  0.0000E+00
     -5.888  0.0000E+00  0.0000E+00  0.0000E+00
     -5.813  0.0000E+00  0.0000E+00  0.0000E+00
     -5.739  0.0000E+00  0.0000E+00  0.0000E+00
     -5.664 -0.5410E-30 -0.1128E-32 -0.2145E-34
     -5.590 -0.1917E-27 -0.4031E-30 -0.7741E-32
     -5.516 -0.5139E-25 -0.1084E-27 -0.2091E-29
     -5.441 -0.1042E-22 -0.2209E-25 -0.4283E-27
     -5.367 -0.1599E-20 -0.3410E-23 -0.6663E-25
     -5.293 -0.1855E-18 -0.3989E-21 -0.7878E-23
     -5.218 -0.1548E-16 -0.3376E-19 -0.6780E-21
     -5.144 -0.1044E-14 -0.2314E-17 -0.4736E-19
     -5.069 -0.5198E-13 -0.1176E-15 -0.2468E-17
     -4.995 -0.1954E-11 -0.4561E-14 -0.9899E-16
     -4.921 -0.5541E-10 -0.1347E-12 -0.3058E-14
     -4.846 -0.1184E-08 -0.3041E-11 -0.7298E-13
     -4.772 -0.1904E-07 -0.5255E-10 -0.1351E-11
     -4.697 -0.2303E-06 -0.6966E-09 -0.1946E-10
     -4.623 -0.2089E-05 -0.7092E-08 -0.2184E-09
     -4.549 -0.1416E-04 -0.5539E-07 -0.1911E-08
     -4.474 -0.7116E-04 -0.3306E-06 -0.1300E-07
     -4.400 -0.2609E-03 -0.1495E-05 -0.6865E-07
     -4.325 -0.6698E-03 -0.5031E-05 -0.2796E-06
     -4.251 -0.1058E-02 -0.1215E-04 -0.8712E-06
     -4.177 -0.3387E-03 -0.1900E-04 -0.2042E-05
     -4.102  0.3305E-02 -0.9962E-05 -0.3420E-05
     -4.028  0.1093E-01  0.4228E-04 -0.3186E-05
     -3.954  0.2138E-01  0.1673E-03  0.2839E-05
     -3.879  0.3224E-01  0.3851E-03  0.2153E-04
     -3.805  0.4180E-01  0.6879E-03  0.6036E-04
     -3.730  0.4910E-01  0.1032E-02  0.1239E-03
     -3.656  0.5405E-01  0.1397E-02  0.2183E-03
     -3.582  0.5879E-01  0.1850E-02  0.3600E-03
     -3.507  0.6547E-01  0.2426E-02  0.5622E-03
     -3.433  0.7177E-01  0.2978E-02  0.8191E-03
     -3.358  0.7429E-01  0.3382E-02  0.1132E-02
     -3.284  0.7528E-01  0.3796E-02  0.1523E-02
     -3.210  0.7954E-01  0.4459E-02  0.2014E-02
     -3.135  0.8750E-01  0.5365E-02  0.2658E-02
     -3.061  0.9552E-01  0.6267E-02  0.3529E-02
     -2.986  0.9927E-01  0.6838E-02  0.4539E-02
     -2.912  0.9706E-01  0.6971E-02  0.5501E-02
     -2.838  0.9427E-01  0.7165E-02  0.6570E-02
     -2.763  0.1002E+00  0.8201E-02  0.8280E-02
     -2.689  0.1152E+00  0.1000E-01  0.1078E-01
     -2.615  0.1273E+00  0.1142E-01  0.1348E-01
     -2.540  0.1278E+00  0.1167E-01  0.1600E-01
     -2.466  0.1221E+00  0.1131E-01  0.1909E-01
     -2.391  0.1213E+00  0.1138E-01  0.2361E-01
     -2.317  0.1284E+00  0.1229E-01  0.2938E-01
     -2.243  0.1405E+00  0.1376E-01  0.3662E-01
     -2.168  0.1574E+00  0.1558E-01  0.4838E-01
     -2.094  0.1793E+00  0.1743E-01  0.6718E-01
     -2.019  0.1972E+00  0.1834E-01  0.8934E-01
     -1.945  0.2003E+00  0.1759E-01  0.1083E+00
     -1.871  0.1908E+00  0.1599E-01  0.1217E+00
     -1.796  0.1794E+00  0.1514E-01  0.1285E+00
     -1.722  0.1722E+00  0.1604E-01  0.1286E+00
     -1.647  0.1732E+00  0.1867E-01  0.1296E+00
     -1.573  0.1830E+00  0.2197E-01  0.1424E+00
     -1.499  0.1903E+00  0.2388E-01  0.1623E+00
     -1.424  0.1781E+00  0.2256E-01  0.1703E+00
     -1.350  0.1449E+00  0.1837E-01  0.1599E+00
     -1.276  0.1114E+00  0.1429E-01  0.1484E+00
     -1.201  0.1006E+00  0.1360E-01  0.1558E+00
     -1.127  0.1151E+00  0.1691E-01  0.1827E+00
     -1.052  0.1347E+00  0.2124E-01  0.2162E+00
     -0.978  0.1353E+00  0.2248E-01  0.2602E+00
     -0.904  0.1105E+00  0.1924E-01  0.3508E+00
     -0.829  0.7485E-01  0.1407E-01  0.5225E+00
     -0.755  0.4689E-01  0.1192E-01  0.7832E+00
     -0.680  0.3680E-01  0.1915E-01  0.1159E+01
     -0.606  0.4299E-01  0.4122E-01  0.1702E+01
     -0.532  0.5412E-01  0.7649E-01  0.2366E+01
     -0.457  0.5720E-01  0.1108E+00  0.2882E+01
     -0.383  0.4694E-01  0.1243E+00  0.2896E+01
     -0.308  0.2882E-01  0.1088E+00  0.2313E+01
     -0.234  0.1415E-01  0.7665E-01  0.1453E+01
     -0.160  0.1070E-01  0.4751E-01  0.8298E+00
     -0.085  0.1762E-01  0.3233E-01  0.8879E+00
     -0.011  0.2896E-01  0.3243E-01  0.1919E+01
      0.063  0.3934E-01  0.4639E-01  0.3886E+01
      0.138  0.4410E-01  0.6811E-01  0.6040E+01
      0.212  0.3985E-01  0.8228E-01  0.7101E+01
      0.287  0.3026E-01  0.7455E-01  0.6398E+01
      0.361  0.2577E-01  0.4804E-01  0.4640E+01
      0.435  0.3301E-01  0.2079E-01  0.3121E+01
      0.510  0.5112E-01  0.6273E-02  0.2510E+01
      0.584  0.7925E-01  0.4290E-02  0.2685E+01
      0.659  0.1177E+00  0.8460E-02  0.3303E+01
      0.733  0.1620E+00  0.1407E-01  0.4170E+01
      0.807  0.2087E+00  0.1891E-01  0.5271E+01
      0.882  0.2608E+00  0.2204E-01  0.6587E+01
      0.956  0.3121E+00  0.2327E-01  0.7697E+01
      1.031  0.3330E+00  0.2261E-01  0.7727E+01
      1.105  0.2980E+00  0.2016E-01  0.6191E+01
      1.179  0.2206E+00  0.1668E-01  0.3746E+01
      1.254  0.1387E+00  0.1337E-01  0.1610E+01
      1.328  0.8030E-01  0.1199E-01  0.4320E+00
      1.402  0.5431E-01  0.1521E-01  0.6048E-01
      1.477  0.5592E-01  0.2457E-01  0.8219E-01
      1.551  0.6778E-01  0.3717E-01  0.2017E+00
      1.626  0.7006E-01  0.4675E-01  0.2777E+00
      1.700  0.5814E-01  0.5053E-01  0.2789E+00
      1.774  0.4523E-01  0.5525E-01  0.2556E+00
      1.849  0.4586E-01  0.7133E-01  0.2740E+00
      1.923  0.6184E-01  0.9743E-01  0.3365E+00
      1.998  0.8428E-01  0.1176E+00  0.3806E+00
      2.072  0.1032E+00  0.1197E+00  0.3632E+00
      2.146  0.1114E+00  0.1085E+00  0.3076E+00
      2.221  0.1056E+00  0.9750E-01  0.2612E+00
      2.295  0.9044E-01  0.9422E-01  0.2415E+00
      2.370  0.7677E-01  0.9618E-01  0.2354E+00
      2.444  0.7028E-01  0.9505E-01  0.2216E+00
      2.518  0.6800E-01  0.8513E-01  0.1871E+00
      2.593  0.6657E-01  0.6987E-01  0.1388E+00
      2.667  0.6837E-01  0.6028E-01  0.1011E+00
      2.741  0.7767E-01  0.6507E-01  0.9471E-01
      2.816  0.9254E-01  0.8092E-01  0.1141E+00
      2.890  0.1031E+00  0.9484E-01  0.1339E+00
      2.965  0.1001E+00  0.9815E-01  0.1411E+00
      3.039  0.8307E-01  0.9316E-01  0.1430E+00
      3.113  0.6028E-01  0.8536E-01  0.1447E+00
      3.188  0.4381E-01  0.7997E-01  0.1419E+00
      3.262  0.4470E-01  0.8565E-01  0.1403E+00
      3.337  0.6211E-01  0.1056E+00  0.1510E+00
      3.411  0.7873E-01  0.1245E+00  0.1644E+00
      3.485  0.7746E-01  0.1222E+00  0.1567E+00
      3.560  0.6048E-01  0.1012E+00  0.1287E+00
      3.634  0.4349E-01  0.8746E-01  0.1126E+00
      3.709  0.3608E-01  0.9729E-01  0.1292E+00
      3.783  0.3785E-01  0.1182E+00  0.1572E+00
      3.857  0.4876E-01  0.1308E+00  0.1638E+00
      3.932  0.6715E-01  0.1335E+00  0.1469E+00
      4.006  0.7956E-01  0.1330E+00  0.1283E+00
      4.080  0.7122E-01  0.1296E+00  0.1211E+00
      4.155  0.4566E-01  0.1189E+00  0.1179E+00
      4.229  0.2061E-01  0.9990E-01  0.1053E+00
      4.304  0.9884E-02  0.8485E-01  0.8823E-01
      4.378  0.1707E-01  0.9722E-01  0.9143E-01
      4.452  0.3735E-01  0.1476E+00  0.1276E+00
      4.527  0.5866E-01  0.2122E+00  0.1751E+00
      4.601  0.6702E-01  0.2500E+00  0.1996E+00
      4.676  0.5721E-01  0.2439E+00  0.1905E+00
      4.750  0.3791E-01  0.2122E+00  0.1630E+00
      4.824  0.2293E-01  0.1830E+00  0.1352E+00
      4.899  0.1772E-01  0.1712E+00  0.1165E+00
      4.973  0.1811E-01  0.1779E+00  0.1140E+00
      5.048  0.2119E-01  0.1955E+00  0.1287E+00
      5.122  0.2997E-01  0.2145E+00  0.1490E+00
      5.196  0.4426E-01  0.2301E+00  0.1618E+00
      5.271  0.5352E-01  0.2396E+00  0.1620E+00
      5.345  0.4682E-01  0.2344E+00  0.1496E+00
      5.419  0.2772E-01  0.2118E+00  0.1278E+00
      5.494  0.1116E-01  0.1862E+00  0.1075E+00
      5.568  0.6952E-02  0.1755E+00  0.9982E-01
      5.643  0.1256E-01  0.1809E+00  0.1039E+00
      5.717  0.2044E-01  0.1897E+00  0.1083E+00
      5.791  0.2668E-01  0.1932E+00  0.1058E+00
      5.866  0.3132E-01  0.1952E+00  0.1006E+00
      5.940  0.3352E-01  0.2033E+00  0.1001E+00
      6.015  0.3072E-01  0.2164E+00  0.1039E+00
      6.089  0.2360E-01  0.2260E+00  0.1070E+00
      6.163  0.1698E-01  0.2251E+00  0.1058E+00
      6.238  0.1393E-01  0.2107E+00  0.9774E-01
      6.312  0.1296E-01  0.1833E+00  0.8117E-01
      6.387  0.1201E-01  0.1519E+00  0.6113E-01
      6.461  0.1189E-01  0.1343E+00  0.4862E-01
      6.535  0.1436E-01  0.1430E+00  0.4956E-01
      6.610  0.1867E-01  0.1750E+00  0.6025E-01
      6.684  0.2137E-01  0.2178E+00  0.7371E-01
      6.758  0.2001E-01  0.2531E+00  0.8370E-01
      6.833  0.1583E-01  0.2574E+00  0.8335E-01
      6.907  0.1183E-01  0.2180E+00  0.6877E-01
      6.982  0.9563E-02  0.1537E+00  0.4599E-01
      7.056  0.8658E-02  0.1011E+00  0.2724E-01
      7.130  0.8055E-02  0.7991E-01  0.1936E-01
      7.205  0.7483E-02  0.8748E-01  0.2128E-01
      7.279  0.7944E-02  0.1143E+00  0.2977E-01
      7.354  0.9986E-02  0.1465E+00  0.4114E-01
      7.428  0.1228E-01  0.1642E+00  0.4947E-01
      7.502  0.1288E-01  0.1545E+00  0.4906E-01
      7.577  0.1121E-01  0.1227E+00  0.3929E-01
      7.651  0.8324E-02  0.8558E-01  0.2533E-01
      7.726  0.5757E-02  0.5743E-01  0.1345E-01
      7.800  0.4113E-02  0.4274E-01  0.7591E-02
      7.874  0.3400E-02  0.4261E-01  0.1157E-01
      7.949  0.4087E-02  0.5893E-01  0.2907E-01
      8.023  0.6049E-02  0.8394E-01  0.5532E-01
      8.097  0.7447E-02  0.9682E-01  0.7631E-01
      8.172  0.7035E-02  0.8559E-01  0.8716E-01
      8.246  0.6506E-02  0.6443E-01  0.1020E+00
      8.321  0.8097E-02  0.5441E-01  0.1307E+00
      8.395  0.1112E-01  0.5586E-01  0.1599E+00
      8.469  0.1314E-01  0.5445E-01  0.1727E+00
      8.544  0.1344E-01  0.4580E-01  0.1720E+00
      8.618  0.1385E-01  0.3875E-01  0.1710E+00
      8.693  0.1713E-01  0.4030E-01  0.1798E+00
      8.767  0.2397E-01  0.4905E-01  0.2014E+00
      8.841  0.3059E-01  0.5885E-01  0.2241E+00
      8.916  0.3225E-01  0.6250E-01  0.2294E+00
      8.990  0.3067E-01  0.5651E-01  0.2200E+00
      9.065  0.3261E-01  0.4485E-01  0.2180E+00
      9.139  0.3956E-01  0.3602E-01  0.2276E+00
      9.213  0.4474E-01  0.3815E-01  0.2302E+00
      9.288  0.4274E-01  0.5492E-01  0.2184E+00
      9.362  0.3621E-01  0.7899E-01  0.2071E+00
      9.436  0.3084E-01  0.9327E-01  0.2091E+00
      9.511  0.2902E-01  0.8715E-01  0.2174E+00
      9.585  0.3059E-01  0.6811E-01  0.2160E+00
      9.660  0.3563E-01  0.5236E-01  0.2024E+00
      9.734  0.4265E-01  0.4833E-01  0.1880E+00
      9.808  0.4631E-01  0.5098E-01  0.1752E+00
      9.883  0.4182E-01  0.4973E-01  0.1515E+00
      9.957  0.3128E-01  0.4095E-01  0.1130E+00
     10.032  0.2120E-01  0.3002E-01  0.7484E-01
     10.106  0.1515E-01  0.2251E-01  0.5112E-01
     10.180  0.1330E-01  0.1931E-01  0.4418E-01
     10.255  0.1740E-01  0.1999E-01  0.5388E-01
     10.329  0.3105E-01  0.2486E-01  0.8344E-01
     10.404  0.5537E-01  0.3417E-01  0.1354E+00
     10.478  0.8518E-01  0.4796E-01  0.2057E+00
     10.552  0.1076E+00  0.6327E-01  0.2755E+00
     10.627  0.1086E+00  0.7190E-01  0.3147E+00
     10.701  0.8696E-01  0.6767E-01  0.3095E+00
     10.776  0.5819E-01  0.5486E-01  0.2785E+00
     10.850  0.3955E-01  0.4390E-01  0.2503E+00
     10.924  0.3532E-01  0.4052E-01  0.2330E+00
     10.999  0.3941E-01  0.4309E-01  0.2168E+00
     11.073  0.4538E-01  0.4787E-01  0.1992E+00
     11.147  0.4964E-01  0.5186E-01  0.1889E+00
     11.222  0.5014E-01  0.5126E-01  0.1853E+00
     11.296  0.4834E-01  0.4410E-01  0.1762E+00
     11.371  0.5069E-01  0.3454E-01  0.1608E+00
     11.445  0.6263E-01  0.2951E-01  0.1535E+00
     11.519  0.8061E-01  0.3087E-01  0.1605E+00
     11.594  0.9390E-01  0.3444E-01  0.1685E+00
     11.668  0.9542E-01  0.3550E-01  0.1617E+00
     11.743  0.8738E-01  0.3290E-01  0.1398E+00
     11.817  0.7700E-01  0.2863E-01  0.1151E+00
     11.891  0.7118E-01  0.2572E-01  0.9975E-01
     11.966  0.7381E-01  0.2604E-01  0.9913E-01
     12.040  0.8137E-01  0.2806E-01  0.1072E+00
     12.115  0.8346E-01  0.2793E-01  0.1088E+00
     12.189  0.7458E-01  0.2427E-01  0.9499E-01
     12.263  0.6159E-01  0.1963E-01  0.7356E-01
     12.338  0.5513E-01  0.1631E-01  0.5680E-01
     12.412  0.5761E-01  0.1371E-01  0.4693E-01
     12.486  0.6187E-01  0.1095E-01  0.3961E-01
     12.561  0.5946E-01  0.8987E-02  0.3424E-01
     12.635  0.4823E-01  0.8714E-02  0.3287E-01
     12.710  0.3199E-01  0.8908E-02  0.3355E-01
     12.784  0.1620E-01  0.7866E-02  0.3186E-01
     12.858  0.5119E-02  0.5960E-02  0.2745E-01
     12.933  0.2104E-03  0.4812E-02  0.2353E-01
     13.007 -0.3531E-03  0.4704E-02  0.2060E-01
     13.082  0.3581E-03  0.4419E-02  0.1631E-01
     13.156  0.6130E-03  0.3332E-02  0.1063E-01
     13.230  0.4554E-03  0.2242E-02  0.6601E-02
     13.305  0.4200E-03  0.2015E-02  0.6152E-02
     13.379  0.5584E-03  0.2344E-02  0.7802E-02
     13.454  0.5988E-03  0.2346E-02  0.8899E-02
     13.528  0.4709E-03  0.1836E-02  0.8806E-02
     13.602  0.3319E-03  0.1328E-02  0.8623E-02
     13.677  0.2584E-03  0.1092E-02  0.8551E-02
     13.751  0.1907E-03  0.1019E-02  0.7706E-02
     13.825  0.9991E-04  0.1107E-02  0.5977E-02
     13.900  0.2548E-04  0.1350E-02  0.4180E-02
     13.974 -0.6780E-05  0.1473E-02  0.2888E-02
     14.049 -0.1023E-04  0.1289E-02  0.2257E-02
     14.123 -0.5558E-05  0.9942E-03  0.2349E-02
     14.197 -0.1997E-05  0.7891E-03  0.2802E-02
     14.272 -0.5272E-06  0.6015E-03  0.2813E-02
     14.346 -0.1051E-06  0.3471E-03  0.2020E-02
     14.421 -0.1590E-07  0.1112E-03  0.9115E-03
     14.495 -0.1821E-08 -0.1070E-04  0.1441E-03
     14.569 -0.1574E-09 -0.3337E-04 -0.1197E-03
     14.644 -0.1025E-10 -0.1984E-04 -0.1086E-03
     14.718 -0.5022E-12 -0.7163E-05 -0.4759E-04
     14.793 -0.1853E-13 -0.1803E-05 -0.1369E-04
     14.867 -0.5151E-15 -0.3307E-06 -0.2786E-05
     14.941 -0.1074E-16 -0.4502E-07 -0.4124E-06
     15.016 -0.1743E-18 -0.4588E-08 -0.4507E-07
     15.090 -0.1702E-22 -0.3514E-09 -0.3665E-08
     15.164 -0.6426E-24 -0.2027E-10 -0.2229E-09
     15.239 -0.1856E-25 -0.8817E-12 -0.1017E-10
     15.313 -0.4264E-27 -0.2895E-13 -0.3493E-12
     15.388 -0.7465E-29 -0.7183E-15 -0.9035E-14
     15.462 -0.1632E-36 -0.1330E-16 -0.1759E-15
     15.536 -0.1895E-38 -0.1658E-18 -0.2455E-17
     15.611  0.0000E+00  0.0000E+00  0.0000E+00
     15.685  0.0000E+00  0.0000E+00  0.0000E+00
     15.760  0.0000E+00  0.0000E+00  0.0000E+00
     15.834  0.0000E+00  0.0000E+00  0.0000E+00
     15.908  0.0000E+00  0.0000E+00  0.0000E+00
     15.983  0.0000E+00  0.0000E+00  0.0000E+00
     16.057  0.0000E+00  0.0000E+00  0.0000E+00
     16.132  0.0000E+00  0.0000E+00  0.0000E+00
     16.206  0.0000E+00  0.0000E+00  0.0000E+00
     16.280  0.0000E+00  0.0000E+00  0.0000E+00
     16.28028429     -6.03640452  301      6.67134076      1.00000000
     -6.036  0.0000E+00  0.0000E+00  0.0000E+00
     -5.962  0.0000E+00  0.0000E+00  0.0000E+00
     -5.888  0.0000E+00  0.0000E+00  0.0000E+00
     -5.813  0.0000E+00  0.0000E+00  0.0000E+00
     -5.739  0.0000E+00  0.0000E+00  0.0000E+00
     -5.664 -0.4226E-30 -0.1290E-32 -0.5434E-34
     -5.590 -0.1497E-27 -0.4607E-30 -0.1939E-31
     -5.516 -0.4015E-25 -0.1239E-27 -0.5214E-29
     -5.441 -0.8143E-23 -0.2524E-25 -0.1062E-26
     -5.367 -0.1249E-20 -0.3895E-23 -0.1638E-24
     -5.293 -0.1449E-18 -0.4556E-21 -0.1914E-22
     -5.218 -0.1209E-16 -0.3854E-19 -0.1617E-20
     -5.144 -0.8156E-15 -0.2641E-17 -0.1106E-18
     -5.069 -0.4061E-13 -0.1342E-15 -0.5613E-17
     -4.995 -0.1527E-11 -0.5197E-14 -0.2169E-15
     -4.921 -0.4328E-10 -0.1534E-12 -0.6380E-14
     -4.846 -0.9247E-09 -0.3457E-11 -0.1432E-12
     -4.772 -0.1487E-07 -0.5964E-10 -0.2459E-11
     -4.697 -0.1798E-06 -0.7891E-09 -0.3235E-10
     -4.623 -0.1631E-05 -0.8017E-08 -0.3267E-09
     -4.549 -0.1105E-04 -0.6249E-07 -0.2531E-08
     -4.474 -0.5552E-04 -0.3722E-06 -0.1500E-07
     -4.400 -0.2034E-03 -0.1680E-05 -0.6747E-07
     -4.325 -0.5218E-03 -0.5650E-05 -0.2268E-06
     -4.251 -0.8227E-03 -0.1365E-04 -0.5512E-06
     -4.177 -0.2569E-03 -0.2141E-04 -0.8831E-06
     -4.102  0.2590E-02 -0.1153E-04 -0.5522E-06
     -4.028  0.8529E-02  0.4659E-04  0.1666E-05
     -3.954  0.1665E-01  0.1865E-03  0.7216E-05
     -3.879  0.2506E-01  0.4317E-03  0.1728E-04
     -3.805  0.3240E-01  0.7750E-03  0.3188E-04
     -3.730  0.3797E-01  0.1169E-02  0.4929E-04
     -3.656  0.4167E-01  0.1592E-02  0.6893E-04
     -3.582  0.4517E-01  0.2121E-02  0.9448E-04
     -3.507  0.5014E-01  0.2797E-02  0.1277E-03
     -3.433  0.5481E-01  0.3455E-02  0.1616E-03
     -3.358  0.5658E-01  0.3957E-02  0.1903E-03
     -3.284  0.5715E-01  0.4485E-02  0.2218E-03
     -3.210  0.6016E-01  0.5309E-02  0.2679E-03
     -3.135  0.6594E-01  0.6426E-02  0.3301E-03
     -3.061  0.7177E-01  0.7564E-02  0.3986E-03
     -2.986  0.7440E-01  0.8352E-02  0.4536E-03
     -2.912  0.7255E-01  0.8649E-02  0.4825E-03
     -2.838  0.7020E-01  0.9039E-02  0.5146E-03
     -2.763  0.7428E-01  0.1046E-01  0.6055E-03
     -2.689  0.8507E-01  0.1285E-01  0.7541E-03
     -2.615  0.9377E-01  0.1483E-01  0.8830E-03
     -2.540  0.9391E-01  0.1546E-01  0.9428E-03
     -2.466  0.8957E-01  0.1542E-01  0.9801E-03
     -2.391  0.8869E-01  0.1608E-01  0.1063E-02
     -2.317  0.9355E-01  0.1795E-01  0.1193E-02
     -2.243  0.1018E+00  0.2075E-01  0.1349E-02
     -2.168  0.1134E+00  0.2450E-01  0.1576E-02
     -2.094  0.1290E+00  0.2906E-01  0.1904E-02
     -2.019  0.1420E+00  0.3280E-01  0.2221E-02
     -1.945  0.1445E+00  0.3402E-01  0.2397E-02
     -1.871  0.1382E+00  0.3323E-01  0.2471E-02
     -1.796  0.1304E+00  0.3230E-01  0.2549E-02
     -1.722  0.1252E+00  0.3254E-01  0.2674E-02
     -1.647  0.1256E+00  0.3475E-01  0.2926E-02
     -1.573  0.1330E+00  0.3854E-01  0.3384E-02
     -1.499  0.1400E+00  0.4096E-01  0.3883E-02
     -1.424  0.1338E+00  0.3835E-01  0.4039E-02
     -1.350  0.1121E+00  0.3099E-01  0.3729E-02
     -1.276  0.8927E-01  0.2425E-01  0.3328E-02
     -1.201  0.8115E-01  0.2391E-01  0.3313E-02
     -1.127  0.8980E-01  0.3048E-01  0.3780E-02
     -1.052  0.1036E+00  0.3783E-01  0.4479E-02
     -0.978  0.1109E+00  0.3841E-01  0.5332E-02
     -0.904  0.1131E+00  0.3077E-01  0.6756E-02
     -0.829  0.1203E+00  0.2075E-01  0.9169E-02
     -0.755  0.1414E+00  0.1642E-01  0.1257E-01
     -0.680  0.1868E+00  0.2378E-01  0.1718E-01
     -0.606  0.2683E+00  0.4456E-01  0.2357E-01
     -0.532  0.3763E+00  0.7432E-01  0.3097E-01
     -0.457  0.4606E+00  0.1018E+00  0.3584E-01
     -0.383  0.4595E+00  0.1128E+00  0.3410E-01
     -0.308  0.3618E+00  0.1008E+00  0.2552E-01
     -0.234  0.2240E+00  0.7464E-01  0.1475E-01
     -0.160  0.1154E+00  0.5617E-01  0.7552E-02
     -0.085  0.6207E-01  0.7078E-01  0.7759E-02
     -0.011  0.4852E-01  0.1388E+00  0.1756E-01
      0.063  0.5185E-01  0.2597E+00  0.3666E-01
      0.138  0.5855E-01  0.3871E+00  0.5827E-01
      0.212  0.6028E-01  0.4414E+00  0.7021E-01
      0.287  0.5110E-01  0.3826E+00  0.6571E-01
      0.361  0.3250E-01  0.2585E+00  0.5093E-01
      0.435  0.1402E-01  0.1522E+00  0.3819E-01
      0.510  0.4122E-02  0.1024E+00  0.3457E-01
      0.584  0.3438E-02  0.9530E-01  0.3976E-01