    3    3  100    1
  0.2288542E+02  0.4596194E-09  0.4596194E-09  0.4596194E-09  0.5000000E-15
  1.000000000000000E-004
  CAR 
 AuAl2                                   
     17    110     12
 
  0.5000000E-01  0.5000000E-01  0.5000000E-01  0.2000000E-02
    1       -4.036405
    2       -0.128233
    3       -0.108215
    4       -0.108215
    5        0.869844
    6        0.869844
    7        8.718260
    8        9.140047
    9        9.417448
   10        9.417448
   11       10.799861
   12       10.799861
 
  0.1500000E+00  0.5000000E-01  0.5000000E-01  0.6000000E-02
    1       -3.859599
    2       -0.186802
    3       -0.066885
    4       -0.057937
    5        0.841646
    6        0.881297
    7        7.378076
    8        8.134202
    9        9.364123
   10        9.370572
   11       10.808828
   12       11.497603
 
  0.2500000E+00  0.5000000E-01  0.5000000E-01  0.6000000E-02
    1       -3.432628
    2       -0.287991
    3        0.020907
    4        0.026894
    5        0.824366
    6        0.896870
    7        5.253853
    8        7.529494
    9        8.571199
   10        9.608008
   11       10.896174
   12       11.003956
 
  0.3500000E+00  0.5000000E-01  0.5000000E-01  0.6000000E-02
    1       -2.814666
    2       -0.343665
    3        0.098765
    4        0.101768
    5        0.858230
    6        0.941678
    7        3.339686
    8        7.026375
    9        7.771374
   10        9.782566
   11       10.521977
   12       10.659898
 
  0.4500000E+00  0.5000000E-01  0.5000000E-01  0.6000000E-02
    1       -2.198225
    2       -0.201643
    3        0.138781
    4        0.141635
    5        0.939761
    6        0.993596
    7        1.769673
    8        6.738114
    9        7.171298
   10        9.772443
   11       10.390211
   12       10.557568
 
 -0.4500000E+00  0.5000000E-01  0.5000000E-01  0.6000000E-02
    1       -1.991887
    2       -0.018978
    3        0.144131
    4        0.194714
    5        0.995692
    6        1.013137
    7        1.105264
    8        6.769047
    9        6.893993
   10        9.681695
   11       10.504783
   12       10.612148
 
 -0.3500000E+00  0.5000000E-01  0.5000000E-01  0.6000000E-02
    1       -2.380567
    2       -0.284098
    3        0.129286
    4        0.131548
    5        0.915320
    6        0.978171
    7        2.238076
    8        6.982993
    9        7.141694
   10        9.652674
   11       10.557534
   12       10.829852
 
 -0.2500000E+00  0.5000000E-01  0.5000000E-01  0.6000000E-02
    1       -3.034141
    2       -0.340142
    3        0.079630
    4        0.080943
    5        0.836889
    6        0.925649
    7        3.945440
    8        7.382442
    9        7.764132
   10        9.637796
   11       10.615655
   12       11.224501
 
 -0.1500000E+00  0.5000000E-01  0.5000000E-01  0.6000000E-02
    1       -3.600228
    2       -0.256675
    3       -0.006622
    4       -0.002634
    5        0.819831
    6        0.894474
    7        5.944869
    8        7.986854
    9        8.441258
   10        9.550066
   11       10.865843
   12       11.538055
 
 -0.5000000E-01  0.5000000E-01  0.5000000E-01  0.6000000E-02
    1       -3.947492
    2       -0.163359
    3       -0.082780
    4       -0.081157
    5        0.844557
    6        0.884895
    7        8.096530
    8        8.706334
    9        8.881407
   10        9.356394
   11       10.841186
   12       11.665153
 
  0.1500000E+00  0.1500000E+00  0.5000000E-01  0.6000000E-02
    1       -3.770378
    2       -0.232716
    3       -0.028860
    4       -0.027628
    5        0.795735
    6        0.913578
    7        7.376364
    8        7.942398
    9        8.378958
   10        8.924028
   11       10.919939
   12       11.330388
 
  0.2500000E+00  0.1500000E+00  0.5000000E-01  0.1200000E-01
    1       -3.423933
    2       -0.331540
    3        0.055245
    4        0.057701
    5        0.745323
    6        0.947379
    7        5.940095
    8        6.811848
    9        8.039796
   10        9.149105
   11       10.557962
   12       11.628280
 
  0.3500000E+00  0.1500000E+00  0.5000000E-01  0.1200000E-01
    1       -2.858230
    2       -0.418146
    3        0.132957
    4        0.151088
    5        0.758811
    6        0.987876
    7        3.993351
    8        6.301012
    9        7.302322
   10        9.335957
   11       11.105094
   12       11.570235
 
  0.4500000E+00  0.1500000E+00  0.5000000E-01  0.1200000E-01
    1       -2.202238
    2       -0.389946
    3        0.173624
    4        0.206764
    5        0.879296
    6        1.017402
    7        2.321650
    8        5.974114
    9        6.676512
   10        9.297913
   11       10.895117
   12       11.730069
 
 -0.4500000E+00  0.1500000E+00  0.5000000E-01  0.1200000E-01
    1       -1.813993
    2       -0.206863
    3        0.223074
    4        0.260000
    5        0.961908
    6        1.041861
    7        1.265851
    8        5.749164
    9        6.486386
   10        9.336517
   11       10.637300
   12       11.665010
 
 -0.3500000E+00  0.1500000E+00  0.5000000E-01  0.1200000E-01
    1       -2.022729
    2       -0.320558
    3        0.191038
    4        0.216179
    5        0.901082
    6        1.002936
    7        1.907412
    8        5.646482
    9        6.837064
   10        9.512043
   11       10.517501
   12       11.427088
 
 -0.2500000E+00  0.1500000E+00  0.5000000E-01  0.1200000E-01
    1       -2.642549
    2       -0.412669
    3        0.135995
    4        0.169812
    5        0.790848
    6        0.995775
    7        3.419491
    8        5.808174
    9        7.535014
   10        9.794687
   11       10.527229
   12       11.284318
 
 -0.1500000E+00  0.1500000E+00  0.5000000E-01  0.1200000E-01
    1       -3.259941
    2       -0.348597
    3        0.073180
    4        0.074249
    5        0.764313
    6        0.946383
    7        5.261843
    8        6.232401
    9        8.387464
   10        9.826013
   11       10.721404
   12       11.209039
 
 -0.5000000E-01  0.1500000E+00  0.5000000E-01  0.1200000E-01
    1       -3.684541
    2       -0.245801
    3       -0.020167
    4       -0.010991
    5        0.804193
    6        0.905935
    7        6.656271
    8        7.465582
    9        8.860258
   10        9.445943
   11       10.961808
   12       11.145882
 
  0.2500000E+00  0.2500000E+00  0.5000000E-01  0.6000000E-02
    1       -3.158447
    2       -0.433289
    3        0.151420
    4        0.152883
    5        0.648691
    6        1.000262
    7        5.820346
    8        6.542675
    9        6.683496
   10        8.420713
   11        9.790470
   12       12.800769
 
  0.3500000E+00  0.2500000E+00  0.5000000E-01  0.1200000E-01
    1       -2.658895
    2       -0.534548
    3        0.226503
    4        0.271993
    5        0.630071
    6        1.044537
    7        4.480637
    8        5.604434
    9        6.255824
   10        8.668133
   11        9.766652
   12       12.675555
 
  0.4500000E+00  0.2500000E+00  0.5000000E-01  0.1200000E-01
    1       -2.005711
    2       -0.572608
    3        0.200358
    4        0.353170
    5        0.811182
    6        1.058150
    7        2.884448
    8        5.042632
    9        5.783044
   10        8.833917
   11       10.713983
   12       12.058997
 
 -0.4500000E+00  0.2500000E+00  0.5000000E-01  0.1200000E-01
    1       -1.484486
    2       -0.442039
    3        0.186630
    4        0.384472
    5        0.965977
    6        1.052800
    7        1.730782
    8        4.512833
    9        5.744103
   10        8.930932
   11       11.573150
   12       12.030382
 
 -0.3500000E+00  0.2500000E+00  0.5000000E-01  0.1200000E-01
    1       -1.513609
    2       -0.398257
    3        0.246107
    4        0.378790
    5        0.820386
    6        0.919444
    7        2.004784
    8        4.140999
    9        6.141429
   10        9.147212
   11       11.243746
   12       12.438966
 
 -0.2500000E+00  0.2500000E+00  0.5000000E-01  0.1200000E-01
    1       -2.055293
    2       -0.483872
    3        0.178020
    4        0.317127
    5        0.772854
    6        0.996046
    7        3.107628
    8        4.150986
    9        6.830089
   10        9.536079
   11       10.945515
   12       12.155259
 
 -0.1500000E+00  0.2500000E+00  0.5000000E-01  0.1200000E-01
    1       -2.699409
    2       -0.438025
    3        0.137475
    4        0.190465
    5        0.748249
    6        1.001413
    7        4.035171
    8        5.124817
    9        7.628345
   10       10.033597
   11       10.448551
   12       11.605456
 
 -0.5000000E-01  0.2500000E+00  0.5000000E-01  0.1200000E-01
    1       -3.184009
    2       -0.344277
    3        0.073032
    4        0.075126
    5        0.793196
    6        0.937190
    7        4.602942
    8        6.909529
    9        8.099402
   10        9.687092
   11       10.774471
   12       11.142565
 
  0.3500000E+00  0.3500000E+00  0.5000000E-01  0.6000000E-02
    1       -2.230303
    2       -0.643166
    3        0.353029
    4        0.403112
    5        0.531100
    6        1.096207
    7        3.964712
    8        5.337725
    9        5.418591
   10        8.176623
   11        9.158366
   12       13.931645
 
  0.4500000E+00  0.3500000E+00  0.5000000E-01  0.1200000E-01
    1       -1.621124
    2       -0.709020
    3        0.247837
    4        0.525214
    5        0.726146
    6        1.113705
    7        2.889938
    8        4.623869
    9        5.057203
   10        8.418049
   11        9.328555
   12       13.376250
 
 -0.4500000E+00  0.3500000E+00  0.5000000E-01  0.1200000E-01
    1       -1.046784
    2       -0.624542
    3        0.080998
    4        0.571643
    5        1.016185
    6        1.078293
    7        1.950576
    8        3.808202
    9        5.041672
   10        8.614716
   11       10.402781
   12       12.736731
 
 -0.3500000E+00  0.3500000E+00  0.5000000E-01  0.1200000E-01
    1       -1.015812
    2       -0.391058
    3        0.114603
    4        0.552384
    5        0.730645
    6        0.988091
    7        2.216062
    8        3.106357
    9        5.426845
   10        8.803943
   11       11.846420
   12       12.174865
 
 -0.2500000E+00  0.3500000E+00  0.5000000E-01  0.1200000E-01
    1       -1.437512
    2       -0.465784
    3        0.229230
    4        0.441499
    5        0.783098
    6        0.865897
    7        2.611549
    8        3.366358
    9        6.081963
   10        9.114337
   11       11.517817
   12       12.669914
 
 -0.1500000E+00  0.3500000E+00  0.5000000E-01  0.1200000E-01
    1       -2.042673
    2       -0.429611
    3        0.183308
    4        0.273059
    5        0.827122
    6        0.998745
    7        2.498330
    8        4.865611
    9        6.832356
   10        9.528207
   11       10.708490
   12       11.822622
 
 -0.5000000E-01  0.3500000E+00  0.5000000E-01  0.1200000E-01
    1       -2.533247
    2       -0.360792
    3        0.132938
    4        0.144259
    5        0.855639
    6        0.985655
    7        2.795976
    8        6.517119
    9        7.348176
   10        9.619573
   11       10.622038
   12       10.948944
 
  0.4500000E+00  0.4500000E+00  0.5000000E-01  0.6000000E-02
    1       -1.103317
    2       -0.785875
    3        0.293187
    4        0.635838
    5        0.708429
    6        1.161773
    7        2.187221
    8        4.563944
    9        4.695065
   10        8.064605
   11        8.866596
   12       14.256180
 
 -0.4500000E+00  0.4500000E+00  0.5000000E-01  0.1200000E-01
    1       -0.803399
    2       -0.586591
    3        0.078165
    4        0.693167
    5        1.033616
    6        1.122115
    7        1.534280
    8        4.122216
    9        4.560212
   10        8.324752
   11        9.160377
   12       13.769406
 
 -0.3500000E+00  0.4500000E+00  0.5000000E-01  0.1200000E-01
    1       -0.837726
    2       -0.394540
    3       -0.088957
    4        0.639655
    5        0.964869
    6        1.180114
    7        1.680302
    8        3.485603
    9        4.903004
   10        8.575576
   11       10.341429
   12       12.939731
 
 -0.2500000E+00  0.4500000E+00  0.5000000E-01  0.1200000E-01
    1       -1.184973
    2       -0.432143
    3        0.153328
    4        0.481906
    5        0.848711
    6        1.038633
    7        1.863693
    8        3.740295
    9        5.529411
   10        8.844467
   11       11.910220
   12       11.927894
 
 -0.1500000E+00  0.4500000E+00  0.5000000E-01  0.1200000E-01
    1       -1.645656
    2       -0.297347
    3        0.267983
    4        0.297008
    5        0.886553
    6        0.992689
    7        1.521018
    8        4.961099
    9        6.268264
   10        9.217261
   11       10.911053
   12       12.069274
 
 -0.5000000E-01  0.4500000E+00  0.5000000E-01  0.1200000E-01
    1       -2.003449
    2       -0.166101
    3        0.168904
    4        0.197372
    5        0.965780
    6        1.006218
    7        1.417059
    8        6.353309
    9        6.845866
   10        9.533064
   11       10.475354
   12       11.044066
 
 -0.4500000E+00 -0.4500000E+00  0.5000000E-01  0.6000000E-02
    1       -0.818109
    2       -0.651700
    3        0.247477
    4        0.697206
    5        0.801684
    6        1.175056
    7        1.587707
    8        4.397490
    9        4.536403
   10        8.044139
   11        8.813655
   12       14.280284
 
 -0.3500000E+00 -0.4500000E+00  0.5000000E-01  0.1200000E-01
    1       -1.060759
    2       -0.762961
    3        0.180969
    4        0.630888
    5        0.861497
    6        1.124178
    7        2.127054
    8        4.295872
    9        4.726553
   10        8.354929
   11        9.215002
   12       13.634633
 
 -0.2500000E+00 -0.4500000E+00  0.5000000E-01  0.1200000E-01
    1       -1.512395
    2       -0.627845
    3        0.165490
    4        0.467057
    5        0.930871
    6        1.056212
    7        2.383580
    8        4.367982
    9        5.325143
   10        8.697652
   11       10.526788
   12       12.414765
 
 -0.1500000E+00 -0.4500000E+00  0.5000000E-01  0.1200000E-01
    1       -1.841711
    2       -0.421773
    3        0.196080
    4        0.288372
    5        0.958624
    6        1.017113
    7        1.937578
    8        5.301953
    9        6.104547
   10        9.075119
   11       11.213347
   12       12.142352
 
 -0.3500000E+00 -0.3500000E+00  0.5000000E-01  0.6000000E-02
    1       -1.673993
    2       -0.726654
    3        0.342529
    4        0.530408
    5        0.600457
    6        1.134895
    7        3.027976
    8        4.882451
    9        4.996675
   10        8.107474
   11        8.977990
   12       14.164871
 
 -0.2500000E+00 -0.3500000E+00  0.5000000E-01  0.1200000E-01
    1       -2.167108
    2       -0.629951
    3        0.270513
    4        0.399488
    5        0.637992
    6        1.086055
    7        3.696864
    8        5.073449
    9        5.561457
   10        8.519658
   11        9.508972
   12       13.037719
 
 -0.1500000E+00 -0.3500000E+00  0.5000000E-01  0.1200000E-01
    1       -2.461743
    2       -0.498108
    3        0.185450
    4        0.245450
    5        0.754067
    6        1.032199
    7        3.421886
    8        5.695610
    9        6.465195
   10        9.039400
   11       10.952264
   12       11.732352
 
 -0.2500000E+00 -0.2500000E+00  0.5000000E-01  0.6000000E-02
    1       -2.730467
    2       -0.542435
    3        0.264489
    4        0.272838
    5        0.570536
    6        1.049562
    7        4.921640
    8        5.930950
    9        5.939563
   10        8.278075
   11        9.422817
   12       13.647795
 
 -0.1500000E+00 -0.2500000E+00  0.5000000E-01  0.1200000E-01
    1       -3.080538
    2       -0.431626
    3        0.142128
    4        0.154758
    5        0.679872
    6        0.995955
    7        5.222143
    8        6.188151
    9        7.114131
   10        8.874574
   11       10.112875
   12       12.327663
 
 -0.1500000E+00 -0.1500000E+00  0.5000000E-01  0.6000000E-02
    1       -3.506509
    2       -0.326349
    3        0.050509
    4        0.051185
    5        0.728114
    6        0.953354
    7        6.624745
    8        7.214505
    9        7.560287
   10        8.620210
   11       10.283540
   12       12.013547
 
  0.1500000E+00  0.1500000E+00  0.1500000E+00  0.2000000E-02
    1       -3.772864
    2       -0.206370
    3       -0.045504
    4       -0.045504
    5        0.860060
    6        0.860060
    7        6.649990
    8        8.713690
    9        8.713690
   10        9.226233
   11       11.391637
   12       11.391637
 
  0.2500000E+00  0.1500000E+00  0.1500000E+00  0.6000000E-02
    1       -3.513765
    2       -0.283528
    3        0.011212
    4        0.023216
    5        0.798895
    6        0.911658
    7        5.945297
    8        6.838254
    9        9.003312
   10        9.856508
   11       10.794557
   12       10.923854
 
  0.3500000E+00  0.1500000E+00  0.1500000E+00  0.6000000E-02
    1       -3.017032
    2       -0.384363
    3        0.101124
    4        0.117564
    5        0.763507
    6        0.966605
    7        4.623857
    8        5.661841
    9        8.278972
   10       10.176612
   11       10.556865
   12       10.911726
 
  0.4500000E+00  0.1500000E+00  0.1500000E+00  0.6000000E-02
    1       -2.366555
    2       -0.415681
    3        0.154910
    4        0.209500
    5        0.803989
    6        1.009193
    7        2.915669
    8        5.322815
    9        7.388912
   10        9.612983
   11       10.944097
   12       10.969007
 
 -0.4500000E+00  0.1500000E+00  0.1500000E+00  0.6000000E-02
    1       -1.831768
    2       -0.279464
    3        0.238545
    4        0.244657
    5        0.916425
    6        0.959910
    7        1.633585
    8        5.310656
    9        6.695675
   10        9.246772
   11       11.052859
   12       11.254603
 
 -0.3500000E+00  0.1500000E+00  0.1500000E+00  0.6000000E-02
    1       -1.824249
    2       -0.300288
    3        0.221547
    4        0.243416
    5        1.009500
    6        1.022315
    7        1.493415
    8        5.629414
    9        6.325004
   10        9.059823
   11       11.305612
   12       11.582408
 
 -0.2500000E+00  0.1500000E+00  0.1500000E+00  0.6000000E-02
    1       -2.353258
    2       -0.453926
    3        0.179720
    4        0.215189
    5        0.825051
    6        1.024901
    7        2.839974
    8        6.211531
    9        6.322883
   10        9.012315
   11       11.723858
   12       11.738424
 
 -0.1500000E+00  0.1500000E+00  0.1500000E+00  0.6000000E-02
    1       -3.005743
    2       -0.426177
    3        0.139904
    4        0.147563
    5        0.713015
    6        0.991282
    7        4.617022
    8        6.647938
    9        6.923979
   10        8.995985
   11       10.585374
   12       12.078689
 
  0.2500000E+00  0.2500000E+00  0.1500000E+00  0.6000000E-02
    1       -3.343482
    2       -0.333814
    3        0.058848
    4        0.061973
    5        0.766565
    6        0.940378
    7        5.268723
    8        7.289598
    9        7.775672
   10        9.372041
   11       10.914509
   12       11.335491
 
  0.3500000E+00  0.2500000E+00  0.1500000E+00  0.1200000E-01
    1       -2.926346
    2       -0.431401
    3        0.133842
    4        0.164531
    5        0.721451
    6        0.993490
    7        4.606275
    8        5.661181
    9        7.472775
   10        9.538974
   11       10.575845
   12       11.459097
 
  0.4500000E+00  0.2500000E+00  0.1500000E+00  0.1200000E-01
    1       -2.314016
    2       -0.501741
    3        0.169135
    4        0.288795
    5        0.750698
    6        1.025155
    7        3.498018
    8        4.629495
    9        6.763510
   10        9.969635
   11       10.411966
   12       11.497010
 
 -0.4500000E+00  0.2500000E+00  0.1500000E+00  0.1200000E-01
    1       -1.690310
    2       -0.451303
    3        0.202693
    4        0.358174
    5        0.882580
    6        0.948398
    7        2.190075
    8        4.427800
    9        6.115097
   10        9.672623
   11       10.578749
   12       12.313898
 
 -0.3500000E+00  0.2500000E+00  0.1500000E+00  0.1200000E-01
    1       -1.477238
    2       -0.372371
    3        0.241004
    4        0.372014
    5        0.829363
    6        1.063860
    7        1.638844
    8        4.533015
    9        5.790069
   10        9.456380
   11       10.751244
   12       12.565934
 
 -0.2500000E+00  0.2500000E+00  0.1500000E+00  0.1200000E-01
    1       -1.860113
    2       -0.516436
    3        0.181952
    4        0.350747
    5        0.873390
    6        1.015623
    7        2.484176
    8        4.747291
    9        5.977531
   10        9.373388
   11       10.984314
   12       11.638819
 
 -0.1500000E+00  0.2500000E+00  0.1500000E+00  0.1200000E-01
    1       -2.518280
    2       -0.520006
    3        0.187143
    4        0.276017
    5        0.701130
    6        1.036474
    7        3.969768
    8        5.130504
    9        6.554251
   10        9.290122
   11       10.334031
   12       11.679125
 
  0.3500000E+00  0.3500000E+00  0.1500000E+00  0.6000000E-02
    1       -2.592096
    2       -0.522146
    3        0.213201
    4        0.251506
    5        0.684753
    6        1.039774
    7        3.977883
    8        6.023728
    9        6.076716
   10        8.724181
   11       10.259398
   12       12.596621
 
  0.4500000E+00  0.3500000E+00  0.1500000E+00  0.1200000E-01
    1       -2.044746
    2       -0.603753
    3        0.204138
    4        0.399757
    5        0.739127
    6        1.061951
    7        3.338145
    8        4.647723
    9        5.753319
   10        9.101340
   11       10.110264
   12       12.009114
 
 -0.4500000E+00  0.3500000E+00  0.1500000E+00  0.1200000E-01
    1       -1.392668
    2       -0.619251
    3        0.143199
    4        0.523551
    5        0.917087
    6        0.958508
    7        2.576832
    8        3.786224
    9        5.234730
   10        9.670968
   11       10.644479
   12       11.472374
 
 -0.3500000E+00  0.3500000E+00  0.1500000E+00  0.1200000E-01
    1       -1.034037
    2       -0.485854
    3        0.183213
    4        0.554387
    5        0.625338
    6        1.136419
    7        2.077938
    8        3.453969
    9        5.044342
   10        9.870223
   11       10.936997
   12       12.086785
 
 -0.2500000E+00  0.3500000E+00  0.1500000E+00  0.1200000E-01
    1       -1.253201
    2       -0.549063
    3        0.176582
    4        0.526067
    5        0.763512
    6        0.981626
    7        2.533591
    8        3.370905
    9        5.339652
   10       10.156450
   11       10.595477
   12       11.797976
 
 -0.1500000E+00  0.3500000E+00  0.1500000E+00  0.1200000E-01
    1       -1.871953
    2       -0.565380
    3        0.175032
    4        0.403989
    5        0.805816
    6        1.013860
    7        3.011991
    8        4.180906
    9        5.928499
   10        9.810696
   11       10.572771
   12       11.350226
 
  0.4500000E+00  0.4500000E+00  0.1500000E+00  0.6000000E-02
    1       -1.582127
    2       -0.682125
    3        0.208989
    4        0.488078
    5        0.826315
    6        1.099677
    7        2.673712
    8        4.521202
    9        5.202076
   10        8.422956
   11        9.820248
   12       13.180507
 
 -0.4500000E+00  0.4500000E+00  0.1500000E+00  0.1200000E-01
    1       -0.990238
    2       -0.715575
    3        0.086620
    4        0.629427
    5        1.003238
    6        1.028331
    7        2.099767
    8        3.908498
    9        4.734577
   10        8.883194
   11        9.828483
   12       12.740301
 
 -0.3500000E+00  0.4500000E+00  0.1500000E+00  0.1200000E-01
    1       -0.714523
    2       -0.442115
    3       -0.084623
    4        0.691295
    5        0.700768
    6        1.283161
    7        1.922950
    8        3.283021
    9        4.510743
   10        9.529479
   11       10.574851
   12       12.101649
 
 -0.2500000E+00  0.4500000E+00  0.1500000E+00  0.1200000E-01
    1       -0.847566
    2       -0.482168
    3        0.167146
    4        0.490609
    5        0.629289
    6        1.165358
    7        2.359243
    8        2.930719
    9        4.844900
   10        9.868040
   11       11.264947
   12       12.021507
 
 -0.1500000E+00  0.4500000E+00  0.1500000E+00  0.1200000E-01
    1       -1.338866
    2       -0.473269
    3        0.200153
    4        0.457966
    5        0.788270
    6        1.033157
    7        2.028150
    8        3.970330
    9        5.474974
   10        9.824870
   11       10.645226
   12       12.207562
 
 -0.4500000E+00 -0.4500000E+00  0.1500000E+00  0.6000000E-02
    1       -0.823498
    2       -0.501679
    3       -0.006889
    4        0.659294
    5        1.097090
    6        1.164866
    7        1.495771
    8        3.807758
    9        4.789699
   10        8.317547
   11        9.644291
   12       13.520001
 
 -0.3500000E+00 -0.4500000E+00  0.1500000E+00  0.1200000E-01
    1       -0.769385
    2       -0.481934
    3       -0.077697
    4        0.692585
    5        0.958214
    6        1.240121
    7        1.602918
    8        3.732286
    9        4.538050
   10        8.842206
   11        9.773583
   12       12.982913
 
 -0.2500000E+00 -0.4500000E+00  0.1500000E+00  0.1200000E-01
    1       -0.918348
    2       -0.646588
    3        0.067832
    4        0.628370
    5        0.819516
    6        1.108132
    7        2.199119
    8        3.468927
    9        4.751836
   10        9.576475
   11       10.609796
   12       11.798994
 
 -0.3500000E+00 -0.3500000E+00  0.1500000E+00  0.6000000E-02
    1       -1.055134
    2       -0.712445
    3        0.130137
    4        0.593520
    5        0.973550
    6        1.103188
    7        2.029368
    8        4.050495
    9        4.930321
   10        8.351256
   11        9.701927
   12       13.399338
 
 -0.2500000E+00 -0.3500000E+00  0.1500000E+00  0.1200000E-01
    1       -1.522422
    2       -0.673256
    3        0.170454
    4        0.523701
    5        0.848713
    6        1.057661
    7        2.705173
    8        4.228907
    9        5.137739
   10        8.967882
   11        9.940148
   12       12.382473
 
 -0.2500000E+00 -0.2500000E+00  0.1500000E+00  0.6000000E-02
    1       -2.111584
    2       -0.611012
    3        0.240749
    4        0.368388
    5        0.719965
    6        1.077960
    7        3.333439
    8        5.195305
    9        5.589687
   10        8.541893
   11       10.004323
   12       12.900426
 
  0.2500000E+00  0.2500000E+00  0.2500000E+00  0.2000000E-02
    1       -3.271742
    2       -0.304473
    3        0.042885
    4        0.042885
    5        0.869724
    6        0.869724
    7        4.576206
    8        7.983658
    9        7.983658
   10        9.477423
   11       11.038751
   12       11.038751
 
  0.3500000E+00  0.2500000E+00  0.2500000E+00  0.6000000E-02
    1       -2.948588
    2       -0.370202
    3        0.099494
    4        0.109274
    5        0.799303
    6        0.957841
    7        3.983581
    8        6.354376
    9        8.094941
   10       10.040700
   11       10.448071
   12       10.746557
 
  0.4500000E+00  0.2500000E+00  0.2500000E+00  0.6000000E-02
    1       -2.405861
    2       -0.455664
    3        0.155114
    4        0.240455
    5        0.756498
    6        1.011770
    7        3.530950
    8        4.616475
    9        7.436530
   10        9.578762
   11       11.173080
   12       11.353761
 
 -0.4500000E+00  0.2500000E+00  0.2500000E+00  0.6000000E-02
    1       -1.756372
    2       -0.470924
    3        0.206181
    4        0.367291
    5        0.791447
    6        0.923782
    7        2.816069
    8        3.722133
    9        6.616372
   10        9.106263
   11       11.557419
   12       12.235350
 
 -0.3500000E+00  0.2500000E+00  0.2500000E+00  0.6000000E-02
    1       -1.343378
    2       -0.384874
    3        0.230974
    4        0.418770
    5        0.834899
    6        0.920939
    7        1.893489
    8        3.912861
    9        5.949954
   10        8.803302
   11       11.885207
   12       12.405427
 
 -0.2500000E+00  0.2500000E+00  0.2500000E+00  0.6000000E-02
    1       -1.497587
    2       -0.542930
    3        0.163795
    4        0.414802
    5        1.012871
    6        1.042041
    7        1.997870
    8        4.465519
    9        5.584116
   10        8.640247
   11       11.269350
   12       12.314880
 
  0.3500000E+00  0.3500000E+00  0.2500000E+00  0.6000000E-02
    1       -2.725011
    2       -0.393065
    3        0.132450
    4        0.138107
    5        0.813413
    6        0.981188
    7        3.366300
    8        6.820343
    9        7.078156
   10        9.343775
   11       11.178013
   12       11.455009
 
  0.4500000E+00  0.3500000E+00  0.2500000E+00  0.1200000E-01
    1       -2.274772
    2       -0.465077
    3        0.170994
    4        0.252161
    5        0.804471
    6        1.022785
    7        2.916049
    8        5.280689
    9        6.738074
   10        9.553423
   11       10.702184
   12       11.858145
 
 -0.4500000E+00  0.3500000E+00  0.2500000E+00  0.1200000E-01
    1       -1.663016
    2       -0.517504
    3        0.188637
    4        0.416059
    5        0.826452
    6        0.932513
    7        2.774447
    8        3.735550
    9        6.060450
   10        9.788943
   11       10.725327
   12       12.011395
 