       N       E                     dE             d eps       ncg     rms          rms(c)
DAV:   1     0.442687775032E+02    0.44269E+02   -0.52144E+03  2688   0.734E+02
DAV:   2    -0.126650260859E+02   -0.56934E+02   -0.55632E+02  3156   0.182E+02
DAV:   3    -0.141789256567E+02   -0.15139E+01   -0.15076E+01  3840   0.313E+01
DAV:   4    -0.141849577532E+02   -0.60321E-02   -0.60297E-02  4092   0.173E+00
DAV:   5    -0.141849628983E+02   -0.51452E-05   -0.51456E-05  4032   0.499E-02    0.619E+00
DAV:   6    -0.133634565558E+02    0.82151E+00   -0.95071E+00  2856   0.327E+01    0.144E+00
DAV:   7    -0.132588860831E+02    0.10457E+00   -0.50746E-01  3000   0.807E+00    0.904E-01
DAV:   8    -0.132285929061E+02    0.30293E-01   -0.87031E-02  3216   0.154E+00    0.212E-01
DAV:   9    -0.132264445334E+02    0.21484E-02   -0.13535E-02  3252   0.130E+00    0.727E-02
DAV:  10    -0.132264068552E+02    0.37678E-04   -0.96581E-04  3204   0.222E-01    0.160E-02
DAV:  11    -0.132264025846E+02    0.42707E-05   -0.13729E-05  3924   0.371E-02    0.105E-02
DAV:  12    -0.132263987714E+02    0.38131E-05   -0.23970E-05  3936   0.397E-02    0.196E-03
DAV:  13    -0.132263987622E+02    0.92532E-08   -0.99592E-07  1968   0.102E-02
   1 F= -.13226399E+02 E0= -.13226908E+02  d E =-.132264E+02
       N       E                     dE             d eps       ncg     rms          rms(c)
DAV:   1    -0.410475647857E+02   -0.27821E+02   -0.53699E+02  3216   0.297E+02    0.299E+01
DAV:   2    -0.165898730163E+02    0.24458E+02   -0.32193E+02  2868   0.161E+02    0.641E+00
DAV:   3    -0.143896903548E+02    0.22002E+01   -0.10270E+01  2904   0.377E+01    0.272E+00
DAV:   4    -0.141971105539E+02    0.19258E+00   -0.39459E+00  3960   0.146E+01    0.152E+00
DAV:   5    -0.140771539631E+02    0.11996E+00   -0.82869E-01  3360   0.105E+01    0.207E-01
DAV:   6    -0.140820650210E+02   -0.49111E-02   -0.16169E-02  3144   0.113E+00    0.948E-02
DAV:   7    -0.140825120159E+02   -0.44699E-03   -0.18911E-03  3864   0.219E-01    0.275E-02
DAV:   8    -0.140825154712E+02   -0.34554E-05   -0.45512E-05  3756   0.725E-02    0.131E-02
DAV:   9    -0.140825080548E+02    0.74165E-05   -0.55947E-05  3888   0.802E-02    0.821E-04
DAV:  10    -0.140825081415E+02   -0.86655E-07   -0.63117E-07  1944   0.824E-03
   2 F= -.14082508E+02 E0= -.14081946E+02  d E =-.856109E+00
       N       E                     dE             d eps       ncg     rms          rms(c)
DAV:   1    -0.158606443037E+02   -0.17781E+01   -0.36718E+01  2796   0.836E+01    0.659E+00
DAV:   2    -0.143266691081E+02    0.15340E+01   -0.97494E+00  2868   0.387E+01    0.769E-01
DAV:   3    -0.143018984192E+02    0.24771E-01   -0.11250E-01  3084   0.312E+00    0.443E-01
DAV:   4    -0.142874580772E+02    0.14440E-01   -0.36444E-02  3168   0.107E+00    0.864E-02
DAV:   5    -0.142872394802E+02    0.21860E-03   -0.78879E-03  3864   0.933E-01    0.806E-02
DAV:   6    -0.142871079792E+02    0.13150E-03   -0.12395E-03  3276   0.403E-01    0.507E-03
DAV:   7    -0.142871111672E+02   -0.31880E-05   -0.26327E-05  4152   0.543E-02    0.481E-03
DAV:   8    -0.142871100103E+02    0.11569E-05   -0.11082E-05  3720   0.352E-02    0.633E-04
DAV:   9    -0.142871100022E+02    0.81000E-08   -0.20533E-07  1548   0.484E-03
   3 F= -.14287110E+02 E0= -.14286472E+02  d E =-.106071E+01
