 vasp.5.3.5 31Mar14 (build Apr 24 2016 17:13:53) complex                        
  
 executed on             LinuxIFC date 2017.12.18  16:57:29
 running on   12 total cores
 distrk:  each k-point on   12 cores,    1 groups
 distr:  one band on NCORES_PER_BAND=   1 cores,   12 groups


--------------------------------------------------------------------------------------------------------


 INCAR:
 POTCAR:   PAW Au 04Feb1998                       
 POTCAR:   PAW Al 17Apr2000                       

 ----------------------------------------------------------------------------- 
|                                                                             |
|           W    W    AA    RRRRR   N    N  II  N    N   GGGG   !!!           |
|           W    W   A  A   R    R  NN   N  II  NN   N  G    G  !!!           |
|           W    W  A    A  R    R  N N  N  II  N N  N  G       !!!           |
|           W WW W  AAAAAA  RRRRR   N  N N  II  N  N N  G  GGG   !            |
|           WW  WW  A    A  R   R   N   NN  II  N   NN  G    G                |
|           W    W  A    A  R    R  N    N  II  N    N   GGGG   !!!           |
|                                                                             |
|      For optimal performance we recommend to set                            |
|        NCORE= 4 - approx SQRT( number of cores)                             |
|      NCORE specifies how many cores store one orbital (NPAR=cpu/NCORE).     |
|      This setting can  greatly improve the performance of VASP for DFT.     |
|      The default, NPAR=number of cores might be grossly inefficient         |
|      on modern multi-core architectures or massively parallel machines.     |
|      Do your own testing !!!!                                               |
|      Unfortunately you need to use the default for GW and RPA calculations. |
|      (for HF NCORE is supported but not extensively tested yet)             |
|                                                                             |
 ----------------------------------------------------------------------------- 

 POTCAR:   PAW Au 04Feb1998                       
   VRHFIN =Au: s1d10                                                            
   LEXCH  = CA                                                                  
   EATOM  =   929.4667 eV,   68.3139 Ry                                         
                                                                                
   TITEL  = PAW Au 04Feb1998                                                    
   LULTRA =        F    use ultrasoft PP ?                                      
   IUNSCR =        1    unscreen: 0-lin 1-nonlin 2-no                           
   RPACOR =    2.330    partial core radius                                     
   POMASS =  196.966; ZVAL   =   11.000    mass and valenz                      
   RCORE  =    2.500    outmost cutoff radius                                   
   RWIGS  =    2.840; RWIGS  =    1.503    wigner-seitz radius (au A)           
   ENMAX  =  229.869; ENMIN  =  172.402 eV                                      
   RCLOC  =    1.964    cutoff for local pot                                    
   LCOR   =        T    correct aug charges                                     
   LPAW   =        T    paw PP                                                  
   EAUG   =  356.670                                                            
   DEXC   =    -.020                                                            
   RMAX   =    3.041    core radius for proj-oper                               
   RDEP   =    2.598    core radius for depl-charge                             
   QCUT   =   -4.110; QGAM   =    8.221    optimization parameters              
                                                                                
   Description                                                                  
     l     E      TYP  RCUT    TYP  RCUT                                        
     2   .000     23  2.500                                                     
     2   .000     23  2.500                                                     
     0   .000     23  2.500                                                     
     0   .000     23  2.500                                                     
     1  -.200     23  2.500                                                     
     1   .000     23  2.500                                                     
     3   .000      7   .000                                                     
  local pseudopotential read in
  partial core-charges read in
  atomic valenz-charges read in
  non local Contribution for L=           2  read in
    real space projection operators read in
  non local Contribution for L=           2  read in
    real space projection operators read in
  non local Contribution for L=           0  read in
    real space projection operators read in
  non local Contribution for L=           0  read in
    real space projection operators read in
  non local Contribution for L=           1  read in
    real space projection operators read in
  non local Contribution for L=           1  read in
    real space projection operators read in
    PAW grid and wavefunctions read in
 
   number of l-projection  operators is LMAX  =           6
   number of lm-projection operators is LMMAX =          18
 
 POTCAR:   PAW Al 17Apr2000                       
   VRHFIN =Al: s2p1                                                             
   LEXCH  = CA                                                                  
   EATOM  =    53.7936 eV,    3.9537 Ry                                         
                                                                                
   TITEL  = PAW Al 17Apr2000                                                    
   LULTRA =        F    use ultrasoft PP ?                                      
   IUNSCR =        1    unscreen: 0-lin 1-nonlin 2-no                           
   RPACOR =    1.500    partial core radius                                     
   POMASS =   26.982; ZVAL   =    3.000    mass and valenz                      
   RCORE  =    1.900    outmost cutoff radius                                   
   RWIGS  =    2.650; RWIGS  =    1.402    wigner-seitz radius (au A)           
   ENMAX  =  240.957; ENMIN  =  180.718 eV                                      
   ICORE  =        2    local potential                                         
   LCOR   =        T    correct aug charges                                     
   LPAW   =        T    paw PP                                                  
   EAUG   =  291.052                                                            
   DEXC   =    -.032                                                            
   RMAX   =    2.970    core radius for proj-oper                               
   RAUG   =    1.300    factor for augmentation sphere                          
   RDEP   =    1.966    core radius for depl-charge                             
   QCUT   =   -4.208; QGAM   =    8.417    optimization parameters              
                                                                                
   Description                                                                  
     l     E      TYP  RCUT    TYP  RCUT                                        
     0   .000     23  1.900                                                     
     0   .000     23  1.900                                                     
     1   .000     23  1.900                                                     
     1  1.000     23  1.900                                                     
     2   .000      7  1.900                                                     
  local pseudopotential read in
  partial core-charges read in
  atomic valenz-charges read in
  non local Contribution for L=           0  read in
    real space projection operators read in
  non local Contribution for L=           0  read in
    real space projection operators read in
  non local Contribution for L=           1  read in
    real space projection operators read in
  non local Contribution for L=           1  read in
    real space projection operators read in
    PAW grid and wavefunctions read in
 
   number of l-projection  operators is LMAX  =           4
   number of lm-projection operators is LMMAX =           8
 
 PAW Au 04Feb1998                       :
 energy of atom  1       EATOM= -929.4667
 kinetic energy error for atom=    0.0446 (will be added to EATOM!!)
 PAW Al 17Apr2000                       :
 energy of atom  2       EATOM=  -53.7936
 kinetic energy error for atom=    0.0012 (will be added to EATOM!!)
 
 
 POSCAR: AuAl2                                   
  positions in direct lattice
  velocities in cartesian coordinates
  No initial velocities read in
 exchange correlation table for  LEXCH =        2
   RHO(1)=    0.500       N(1)  =     2000
   RHO(2)=  100.500       N(2)  =     4000
 


--------------------------------------------------------------------------------------------------------


 ion  position               nearest neighbor table
   1  0.000  0.000  0.000-   3 2.81   3 2.81   3 2.81   2 2.81   3 2.81   2 2.81   2 2.81   2 2.81

   2  0.250  0.250  0.250-   1 2.81   1 2.81   1 2.81   1 2.81   3 3.25   3 3.25   3 3.25   3 3.25
                             3 3.25   3 3.25
   3  0.750  0.750  0.750-   1 2.81   1 2.81   1 2.81   1 2.81   2 3.25   2 3.25   2 3.25   2 3.25
                             2 3.25   2 3.25
 
  LATTYP: Found a face centered cubic cell.
 ALAT       =     6.5000000000
  
  Lattice vectors:
  
 A1 = (   0.0000000000,   3.2500000000,   3.2500000000)
 A2 = (   3.2500000000,   0.0000000000,   3.2500000000)
 A3 = (   3.2500000000,   3.2500000000,   0.0000000000)


Analysis of symmetry for initial positions (statically):
=====================================================================
 Subroutine PRICEL returns:
 Original cell was already a primitive cell.
 

 Routine SETGRP: Setting up the symmetry group for a 
 face centered cubic supercell.


 Subroutine GETGRP returns: Found 48 space group operations
 (whereof 48 operations were pure point group operations)
 out of a pool of 48 trial point group operations.


The static configuration has the point symmetry O_h .


Analysis of symmetry for dynamics (positions and initial velocities):
=====================================================================
 Subroutine PRICEL returns:
 Original cell was already a primitive cell.
 

 Routine SETGRP: Setting up the symmetry group for a 
 face centered cubic supercell.


 Subroutine GETGRP returns: Found 48 space group operations
 (whereof 48 operations were pure point group operations)
 out of a pool of 48 trial point group operations.


The dynamic configuration has the point symmetry O_h .
 
 
 KPOINTS: 10x10x10                                

Automatic generation of k-mesh.
Space group operators:
 irot       det(A)        alpha          n_x          n_y          n_z        tau_x        tau_y        tau_z
    1     1.000000     0.000001     1.000000     0.000000     0.000000     0.000000     0.000000     0.000000
    2    -1.000000     0.000001     1.000000     0.000000     0.000000     0.000000     0.000000     0.000000
    3     1.000000   120.000000    -0.577350    -0.577350    -0.577350     0.000000     0.000000     0.000000
    4    -1.000000   120.000000    -0.577350    -0.577350    -0.577350     0.000000     0.000000     0.000000
    5     1.000000   120.000000     0.577350     0.577350     0.577350     0.000000     0.000000     0.000000
    6    -1.000000   120.000000     0.577350     0.577350     0.577350     0.000000     0.000000     0.000000
    7     1.000000    90.000000     0.000000     0.000000    -1.000000     0.000000     0.000000     0.000000
    8    -1.000000    90.000000     0.000000     0.000000    -1.000000     0.000000     0.000000     0.000000
    9     1.000000   180.000000     0.000000     0.707107     0.707107     0.000000     0.000000     0.000000
   10    -1.000000   180.000000     0.000000     0.707107     0.707107     0.000000     0.000000     0.000000
   11     1.000000    90.000000     0.000000     1.000000     0.000000     0.000000     0.000000     0.000000
   12    -1.000000    90.000000     0.000000     1.000000     0.000000     0.000000     0.000000     0.000000
   13     1.000000   180.000000     0.000000     0.000000     1.000000     0.000000     0.000000     0.000000
   14    -1.000000   180.000000     0.000000     0.000000     1.000000     0.000000     0.000000     0.000000
   15     1.000000   120.000000    -0.577350     0.577350     0.577350     0.000000     0.000000     0.000000
   16    -1.000000   120.000000    -0.577350     0.577350     0.577350     0.000000     0.000000     0.000000
   17     1.000000   120.000000    -0.577350     0.577350    -0.577350     0.000000     0.000000     0.000000
   18    -1.000000   120.000000    -0.577350     0.577350    -0.577350     0.000000     0.000000     0.000000
   19     1.000000    90.000000     0.000000     0.000000     1.000000     0.000000     0.000000     0.000000
   20    -1.000000    90.000000     0.000000     0.000000     1.000000     0.000000     0.000000     0.000000
   21     1.000000    90.000000    -1.000000     0.000000     0.000000     0.000000     0.000000     0.000000
   22    -1.000000    90.000000    -1.000000     0.000000     0.000000     0.000000     0.000000     0.000000
   23     1.000000   180.000000     0.707107     0.000000     0.707107     0.000000     0.000000     0.000000
   24    -1.000000   180.000000     0.707107     0.000000     0.707107     0.000000     0.000000     0.000000
   25     1.000000   120.000000     0.577350    -0.577350     0.577350     0.000000     0.000000     0.000000
   26    -1.000000   120.000000     0.577350    -0.577350     0.577350     0.000000     0.000000     0.000000
   27     1.000000   120.000000    -0.577350    -0.577350     0.577350     0.000000     0.000000     0.000000
   28    -1.000000   120.000000    -0.577350    -0.577350     0.577350     0.000000     0.000000     0.000000
   29     1.000000   180.000000     1.000000     0.000000     0.000000     0.000000     0.000000     0.000000
   30    -1.000000   180.000000     1.000000     0.000000     0.000000     0.000000     0.000000     0.000000
   31     1.000000    90.000000     0.000000    -1.000000     0.000000     0.000000     0.000000     0.000000
   32    -1.000000    90.000000     0.000000    -1.000000     0.000000     0.000000     0.000000     0.000000
   33     1.000000   180.000000     0.707107     0.707107     0.000000     0.000000     0.000000     0.000000
   34    -1.000000   180.000000     0.707107     0.707107     0.000000     0.000000     0.000000     0.000000
   35     1.000000    90.000000     1.000000     0.000000     0.000000     0.000000     0.000000     0.000000
   36    -1.000000    90.000000     1.000000     0.000000     0.000000     0.000000     0.000000     0.000000
   37     1.000000   120.000000     0.577350    -0.577350    -0.577350     0.000000     0.000000     0.000000
   38    -1.000000   120.000000     0.577350    -0.577350    -0.577350     0.000000     0.000000     0.000000
   39     1.000000   180.000000     0.000000     1.000000     0.000000     0.000000     0.000000     0.000000
   40    -1.000000   180.000000     0.000000     1.000000     0.000000     0.000000     0.000000     0.000000
   41     1.000000   120.000000     0.577350     0.577350    -0.577350     0.000000     0.000000     0.000000
   42    -1.000000   120.000000     0.577350     0.577350    -0.577350     0.000000     0.000000     0.000000
   43     1.000000   180.000000     0.000000    -0.707107     0.707107     0.000000     0.000000     0.000000
   44    -1.000000   180.000000     0.000000    -0.707107     0.707107     0.000000     0.000000     0.000000
   45     1.000000   180.000000     0.707107    -0.707107     0.000000     0.000000     0.000000     0.000000
   46    -1.000000   180.000000     0.707107    -0.707107     0.000000     0.000000     0.000000     0.000000
   47     1.000000   180.000000     0.707107     0.000000    -0.707107     0.000000     0.000000     0.000000
   48    -1.000000   180.000000     0.707107     0.000000    -0.707107     0.000000     0.000000     0.000000
 
 Subroutine IBZKPT returns following result:
 ===========================================
 
 Found    110 irreducible k-points:
 
 Following reciprocal coordinates:
            Coordinates               Weight
  0.050000  0.050000  0.050000     96.000000
  0.150000  0.050000  0.050000    288.000000
  0.250000  0.050000  0.050000    288.000000
  0.350000  0.050000  0.050000    288.000000
  0.450000  0.050000  0.050000    288.000000
 -0.450000  0.050000  0.050000    288.000000
 -0.350000  0.050000  0.050000    288.000000
 -0.250000  0.050000  0.050000    288.000000
 -0.150000  0.050000  0.050000    288.000000
 -0.050000  0.050000  0.050000    288.000000
  0.150000  0.150000  0.050000    288.000000
  0.250000  0.150000  0.050000    576.000000
  0.350000  0.150000  0.050000    576.000000
  0.450000  0.150000  0.050000    576.000000
 -0.450000  0.150000  0.050000    576.000000
 -0.350000  0.150000  0.050000    576.000000
 -0.250000  0.150000  0.050000    576.000000
 -0.150000  0.150000  0.050000    576.000000
 -0.050000  0.150000  0.050000    576.000000
  0.250000  0.250000  0.050000    288.000000
  0.350000  0.250000  0.050000    576.000000
  0.450000  0.250000  0.050000    576.000000
 -0.450000  0.250000  0.050000    576.000000
 -0.350000  0.250000  0.050000    576.000000
 -0.250000  0.250000  0.050000    576.000000
 -0.150000  0.250000  0.050000    576.000000
 -0.050000  0.250000  0.050000    576.000000
  0.350000  0.350000  0.050000    288.000000
  0.450000  0.350000  0.050000    576.000000
 -0.450000  0.350000  0.050000    576.000000
 -0.350000  0.350000  0.050000    576.000000
 -0.250000  0.350000  0.050000    576.000000
 -0.150000  0.350000  0.050000    576.000000
 -0.050000  0.350000  0.050000    576.000000
  0.450000  0.450000  0.050000    288.000000
 -0.450000  0.450000  0.050000    576.000000
 -0.350000  0.450000  0.050000    576.000000
 -0.250000  0.450000  0.050000    576.000000
 -0.150000  0.450000  0.050000    576.000000
 -0.050000  0.450000  0.050000    576.000000
 -0.450000 -0.450000  0.050000    288.000000
 -0.350000 -0.450000  0.050000    576.000000
 -0.250000 -0.450000  0.050000    576.000000
 -0.150000 -0.450000  0.050000    576.000000
 -0.350000 -0.350000  0.050000    288.000000
 -0.250000 -0.350000  0.050000    576.000000
 -0.150000 -0.350000  0.050000    576.000000
 -0.250000 -0.250000  0.050000    288.000000
 -0.150000 -0.250000  0.050000    576.000000
 -0.150000 -0.150000  0.050000    288.000000
  0.150000  0.150000  0.150000     96.000000
  0.250000  0.150000  0.150000    288.000000
  0.350000  0.150000  0.150000    288.000000
  0.450000  0.150000  0.150000    288.000000
 -0.450000  0.150000  0.150000    288.000000
 -0.350000  0.150000  0.150000    288.000000
 -0.250000  0.150000  0.150000    288.000000
 -0.150000  0.150000  0.150000    288.000000
  0.250000  0.250000  0.150000    288.000000
  0.350000  0.250000  0.150000    576.000000
  0.450000  0.250000  0.150000    576.000000
 -0.450000  0.250000  0.150000    576.000000
 -0.350000  0.250000  0.150000    576.000000
 -0.250000  0.250000  0.150000    576.000000
 -0.150000  0.250000  0.150000    576.000000
  0.350000  0.350000  0.150000    288.000000
  0.450000  0.350000  0.150000    576.000000
 -0.450000  0.350000  0.150000    576.000000
 -0.350000  0.350000  0.150000    576.000000
 -0.250000  0.350000  0.150000    576.000000
 -0.150000  0.350000  0.150000    576.000000
  0.450000  0.450000  0.150000    288.000000
 -0.450000  0.450000  0.150000    576.000000
 -0.350000  0.450000  0.150000    576.000000
 -0.250000  0.450000  0.150000    576.000000
 -0.150000  0.450000  0.150000    576.000000
 -0.450000 -0.450000  0.150000    288.000000
 -0.350000 -0.450000  0.150000    576.000000
 -0.250000 -0.450000  0.150000    576.000000
 -0.350000 -0.350000  0.150000    288.000000
 -0.250000 -0.350000  0.150000    576.000000
 -0.250000 -0.250000  0.150000    288.000000
  0.250000  0.250000  0.250000     96.000000
  0.350000  0.250000  0.250000    288.000000
  0.450000  0.250000  0.250000    288.000000
 -0.450000  0.250000  0.250000    288.000000
 -0.350000  0.250000  0.250000    288.000000
 -0.250000  0.250000  0.250000    288.000000
  0.350000  0.350000  0.250000    288.000000
  0.450000  0.350000  0.250000    576.000000
 -0.450000  0.350000  0.250000    576.000000
 -0.350000  0.350000  0.250000    576.000000
 -0.250000  0.350000  0.250000    576.000000
  0.450000  0.450000  0.250000    288.000000
 -0.450000  0.450000  0.250000    576.000000
 -0.350000  0.450000  0.250000    576.000000
 -0.250000  0.450000  0.250000    576.000000
 -0.450000 -0.450000  0.250000    288.000000
 -0.350000 -0.450000  0.250000    576.000000
 -0.350000 -0.350000  0.250000    288.000000
  0.350000  0.350000  0.350000     96.000000
  0.450000  0.350000  0.350000    288.000000
 -0.450000  0.350000  0.350000    288.000000
 -0.350000  0.350000  0.350000    288.000000
  0.450000  0.450000  0.350000    288.000000
 -0.450000  0.450000  0.350000    576.000000
 -0.350000  0.450000  0.350000    576.000000
 -0.450000 -0.450000  0.350000    288.000000
  0.450000  0.450000  0.450000     96.000000
 -0.450000  0.450000  0.450000    288.000000
 
 Following cartesian coordinates:
            Coordinates               Weight
  0.050000  0.050000  0.050000     96.000000
 -0.050000  0.150000  0.150000    288.000000
 -0.150000  0.250000  0.250000    288.000000
 -0.250000  0.350000  0.350000    288.000000
 -0.350000  0.450000  0.450000    288.000000
  0.550000 -0.450000 -0.450000    288.000000
  0.450000 -0.350000 -0.350000    288.000000
  0.350000 -0.250000 -0.250000    288.000000
  0.250000 -0.150000 -0.150000    288.000000
  0.150000 -0.050000 -0.050000    288.000000
  0.050000  0.050000  0.250000    288.000000
 -0.050000  0.150000  0.350000    576.000000
 -0.150000  0.250000  0.450000    576.000000
 -0.250000  0.350000  0.550000    576.000000
  0.650000 -0.550000 -0.350000    576.000000
  0.550000 -0.450000 -0.250000    576.000000
  0.450000 -0.350000 -0.150000    576.000000
  0.350000 -0.250000 -0.050000    576.000000
  0.250000 -0.150000  0.050000    576.000000
  0.050000  0.050000  0.450000    288.000000
 -0.050000  0.150000  0.550000    576.000000
 -0.150000  0.250000  0.650000    576.000000
  0.750000 -0.650000 -0.250000    576.000000
  0.650000 -0.550000 -0.150000    576.000000
  0.550000 -0.450000 -0.050000    576.000000
  0.450000 -0.350000  0.050000    576.000000
  0.350000 -0.250000  0.150000    576.000000
  0.050000  0.050000  0.650000    288.000000
 -0.050000  0.150000  0.750000    576.000000
  0.850000 -0.750000 -0.150000    576.000000
  0.750000 -0.650000 -0.050000    576.000000
  0.650000 -0.550000  0.050000    576.000000
  0.550000 -0.450000  0.150000    576.000000
  0.450000 -0.350000  0.250000    576.000000
  0.050000  0.050000  0.850000    288.000000
  0.950000 -0.850000 -0.050000    576.000000
  0.850000 -0.750000  0.050000    576.000000
  0.750000 -0.650000  0.150000    576.000000
  0.650000 -0.550000  0.250000    576.000000
  0.550000 -0.450000  0.350000    576.000000
  0.050000  0.050000 -0.950000    288.000000
 -0.050000  0.150000 -0.850000    576.000000
 -0.150000  0.250000 -0.750000    576.000000
 -0.250000  0.350000 -0.650000    576.000000
  0.050000  0.050000 -0.750000    288.000000
 -0.050000  0.150000 -0.650000    576.000000
 -0.150000  0.250000 -0.550000    576.000000
  0.050000  0.050000 -0.550000    288.000000
 -0.050000  0.150000 -0.450000    576.000000
  0.050000  0.050000 -0.350000    288.000000
  0.150000  0.150000  0.150000     96.000000
  0.050000  0.250000  0.250000    288.000000
 -0.050000  0.350000  0.350000    288.000000
 -0.150000  0.450000  0.450000    288.000000
  0.750000 -0.450000 -0.450000    288.000000
  0.650000 -0.350000 -0.350000    288.000000
  0.550000 -0.250000 -0.250000    288.000000
  0.450000 -0.150000 -0.150000    288.000000
  0.150000  0.150000  0.350000    288.000000
  0.050000  0.250000  0.450000    576.000000
 -0.050000  0.350000  0.550000    576.000000
  0.850000 -0.550000 -0.350000    576.000000
  0.750000 -0.450000 -0.250000    576.000000
  0.650000 -0.350000 -0.150000    576.000000
  0.550000 -0.250000 -0.050000    576.000000
  0.150000  0.150000  0.550000    288.000000
  0.050000  0.250000  0.650000    576.000000
  0.950000 -0.650000 -0.250000    576.000000
  0.850000 -0.550000 -0.150000    576.000000
  0.750000 -0.450000 -0.050000    576.000000
  0.650000 -0.350000  0.050000    576.000000
  0.150000  0.150000  0.750000    288.000000
  1.050000 -0.750000 -0.150000    576.000000
  0.950000 -0.650000 -0.050000    576.000000
  0.850000 -0.550000  0.050000    576.000000
  0.750000 -0.450000  0.150000    576.000000
  0.150000  0.150000 -1.050000    288.000000
  0.050000  0.250000 -0.950000    576.000000
 -0.050000  0.350000 -0.850000    576.000000
  0.150000  0.150000 -0.850000    288.000000
  0.050000  0.250000 -0.750000    576.000000
  0.150000  0.150000 -0.650000    288.000000
  0.250000  0.250000  0.250000     96.000000
  0.150000  0.350000  0.350000    288.000000
  0.050000  0.450000  0.450000    288.000000
  0.950000 -0.450000 -0.450000    288.000000
  0.850000 -0.350000 -0.350000    288.000000
  0.750000 -0.250000 -0.250000    288.000000
  0.250000  0.250000  0.450000    288.000000
  0.150000  0.350000  0.550000    576.000000
  1.050000 -0.550000 -0.350000    576.000000
  0.950000 -0.450000 -0.250000    576.000000
  0.850000 -0.350000 -0.150000    576.000000
  0.250000  0.250000  0.650000    288.000000
  1.150000 -0.650000 -0.250000    576.000000
  1.050000 -0.550000 -0.150000    576.000000
  0.950000 -0.450000 -0.050000    576.000000
  0.250000  0.250000 -1.150000    288.000000
  0.150000  0.350000 -1.050000    576.000000
  0.250000  0.250000 -0.950000    288.000000
  0.350000  0.350000  0.350000     96.000000
  0.250000  0.450000  0.450000    288.000000
  1.150000 -0.450000 -0.450000    288.000000
  1.050000 -0.350000 -0.350000    288.000000
  0.350000  0.350000  0.550000    288.000000
  1.250000 -0.550000 -0.350000    576.000000
  1.150000 -0.450000 -0.250000    576.000000
  0.350000  0.350000 -1.250000    288.000000
  0.450000  0.450000  0.450000     96.000000
  1.350000 -0.450000 -0.450000    288.000000
 


--------------------------------------------------------------------------------------------------------




 Dimension of arrays:
   k-points           NKPTS =    110   k-points in BZ     NKDIM =    110   number of bands    NBANDS=     12
   number of dos      NEDOS =    301   number of ions     NIONS =      3
   non local maximal  LDIM  =      6   non local SUM 2l+1 LMDIM =     18
   total plane-waves  NPLWV =  21952
   max r-space proj   IRMAX =      1   max aug-charges    IRDMAX=   7324
   dimension x,y,z NGX =    28 NGY =   28 NGZ =   28
   dimension x,y,z NGXF=    40 NGYF=   40 NGZF=   40
   support grid    NGXF=    40 NGYF=   40 NGZF=   40
   ions per type =               1   2
 NGX,Y,Z   is equivalent  to a cutoff of  10.13, 10.13, 10.13 a.u.
 NGXF,Y,Z  is equivalent  to a cutoff of  14.47, 14.47, 14.47 a.u.


 I would recommend the setting:
   dimension x,y,z NGX =    26 NGY =   26 NGZ =   26
 SYSTEM =  AuAl2                                   
 POSCAR =  AuAl2                                   

 Startparameter for this run:
   NWRITE =      2    write-flag & timer
   PREC   = high      normal or accurate (medium, high low for compatibility)
   ISTART =      0    job   : 0-new  1-cont  2-samecut
   ICHARG =      2    charge: 1-file 2-atom 10-const
   ISPIN  =      1    spin polarized calculation?
   LNONCOLLINEAR =      F non collinear calculations
   LSORBIT =      F    spin-orbit coupling
   INIWAV =      1    electr: 0-lowe 1-rand  2-diag
   LASPH  =      F    aspherical Exc in radial PAW
   METAGGA=      F    non-selfconsistent MetaGGA calc.

 Electronic Relaxation 1
   ENCUT  =  301.2 eV  22.14 Ry    4.71 a.u.   6.50  6.50  6.50*2*pi/ulx,y,z
   ENINI  =  301.2     initial cutoff
   ENAUG  =  356.7 eV  augmentation charge cutoff
   NELM   =     60;   NELMIN=  2; NELMDL= -5     # of ELM steps 
   EDIFF  = 0.1E-05   stopping-criterion for ELM
   LREAL  =      F    real-space projection
   NLSPLINE    = F    spline interpolate recip. space projectors
   LCOMPAT=      F    compatible to vasp.4.4
   GGA_COMPAT  = T    GGA compatible to vasp.4.4-vasp.4.6
   LMAXPAW     = -100 max onsite density
   LMAXMIX     =    2 max onsite mixed and CHGCAR
   VOSKOWN=      0    Vosko Wilk Nusair interpolation
   ROPT   =    0.00000   0.00000
 Ionic relaxation
   EDIFFG = 0.1E-04   stopping-criterion for IOM
   NSW    =    100    number of steps for IOM
   NBLOCK =      1;   KBLOCK =    100    inner block; outer block 
   IBRION =      2    ionic relax: 0-MD 1-quasi-New 2-CG
   NFREE  =      1    steps in history (QN), initial steepest desc. (CG)
   ISIF   =      3    stress and relaxation
   IWAVPR =     11    prediction:  0-non 1-charg 2-wave 3-comb
   ISYM   =      2    0-nonsym 1-usesym 2-fastsym
   LCORR  =      T    Harris-Foulkes like correction to forces

   POTIM  = 0.5000    time-step for ionic-motion
   TEIN   =    0.0    initial temperature
   TEBEG  =    0.0;   TEEND  =   0.0 temperature during run
   SMASS  =  -3.00    Nose mass-parameter (am)
   estimated Nose-frequenzy (Omega)   =  0.10E-29 period in steps =****** mass=  -0.483E-27a.u.
   SCALEE = 1.0000    scale energy and forces
   NPACO  =    256;   APACO  = 16.0  distance and # of slots for P.C.
   PSTRESS=    0.0 pullay stress

  Mass of Ions in am
   POMASS = 196.97 26.98
  Ionic Valenz
   ZVAL   =  11.00  3.00
  Atomic Wigner-Seitz radii
   RWIGS  =   1.50  1.40
  virtual crystal weights 
   VCA    =   1.00  1.00
   NELECT =      17.0000    total number of electrons
   NUPDOWN=      -1.0000    fix difference up-down

 DOS related values:
   EMIN   =  10.00;   EMAX   =-10.00  energy-range for DOS
   EFERMI =   0.00
   ISMEAR =     1;   SIGMA  =   0.20  broadening in eV -4-tet -1-fermi 0-gaus

 Electronic relaxation 2 (details)
   IALGO  =     38    algorithm
   LDIAG  =      T    sub-space diagonalisation (order eigenvalues)
   LSUBROT=      F    optimize rotation matrix (better conditioning)
   TURBO    =      0    0=normal 1=particle mesh
   IRESTART =      0    0=no restart 2=restart with 2 vectors
   NREBOOT  =      0    no. of reboots
   NMIN     =      0    reboot dimension
   EREF     =   0.00    reference energy to select bands
   IMIX   =      4    mixing-type and parameters
     AMIX     =   0.40;   BMIX     =  1.00
     AMIX_MAG =   1.60;   BMIX_MAG =  1.00
     AMIN     =   0.10
     WC   =   100.;   INIMIX=   1;  MIXPRE=   1;  MAXMIX= -45

 Intra band minimization:
   WEIMIN = 0.0010     energy-eigenvalue tresh-hold
   EBREAK =  0.21E-07  absolut break condition
   DEPER  =   0.30     relativ break condition  

   TIME   =   0.40     timestep for ELM

  volume/ion in A,a.u.               =      22.89       154.44
  Fermi-wavevector in a.u.,A,eV,Ry     =   1.028011  1.942659 14.378728  1.056807
  Thomas-Fermi vector in A             =   2.161986
 
 Write flags
   LWAVE  =      T    write WAVECAR
   LCHARG =      T    write CHGCAR
   LVTOT  =      F    write LOCPOT, total local potential
   LVHAR  =      F    write LOCPOT, Hartree potential only
   LELF   =      F    write electronic localiz. function (ELF)
   LORBIT =      0    0 simple, 1 ext, 2 COOP (PROOUT)


 Dipole corrections
   LMONO  =      F    monopole corrections only (constant potential shift)
   LDIPOL =      F    correct potential (dipole corrections)
   IDIPOL =      0    1-x, 2-y, 3-z, 4-all directions 
   EPSILON=  1.0000000 bulk dielectric constant

 Exchange correlation treatment:
   GGA     =    --    GGA type
   LEXCH   =     2    internal setting for exchange type
   VOSKOWN=      0    Vosko Wilk Nusair interpolation
   LHFCALC =     F    Hartree Fock is set to
   LHFONE  =     F    Hartree Fock one center treatment
   AEXX    =    0.0000 exact exchange contribution

 Linear response parameters
   LEPSILON=     F    determine dielectric tensor
   LRPA    =     F    only Hartree local field effects (RPA)
   LNABLA  =     F    use nabla operator in PAW spheres
   LVEL    =     F    velocity operator in full k-point grid
   LINTERFAST=   F  fast interpolation
   KINTER  =     0    interpolate to denser k-point grid
   CSHIFT  =0.1000    complex shift for real part using Kramers Kronig
   OMEGAMAX=  -1.0    maximum frequency
   DEG_THRESHOLD= 0.2000000E-02 threshold for treating states as degnerate
   RTIME   =    0.100 relaxation time in fs

 Orbital magnetization related:
   ORBITALMAG=     F  switch on orbital magnetization
   LCHIMAG   =     F  perturbation theory with respect to B field
   DQ        =  0.001000  dq finite difference perturbation B field



--------------------------------------------------------------------------------------------------------


 conjugate gradient relaxation of ions
 charge density and potential will be updated during run
 non-spin polarized calculation
 Variant of blocked Davidson
 Davidson routine will perform the subspace rotation
 perform sub-space diagonalisation
    after iterative eigenvector-optimisation
 modified Broyden-mixing scheme, WC =      100.0
 initial mixing is a Kerker type mixing with AMIX =  0.4000 and BMIX =      1.0000
 Hartree-type preconditioning will be used
 using additional bands            3
 reciprocal scheme for non local part
 use partial core corrections
 calculate Harris-corrections to forces 
   (improved forces if not selfconsistent)
 use of overlap-Matrix (Vanderbilt PP)
 Methfessel and Paxton  Order N= 1 SIGMA  =   0.20


--------------------------------------------------------------------------------------------------------


  energy-cutoff  :      301.20
  volume of cell :       68.66
      direct lattice vectors                 reciprocal lattice vectors
     0.000000000  3.250000000  3.250000000    -0.153846154  0.153846154  0.153846154
     3.250000000  0.000000000  3.250000000     0.153846154 -0.153846154  0.153846154
     3.250000000  3.250000000  0.000000000     0.153846154  0.153846154 -0.153846154

  length of vectors
     4.596194078  4.596194078  4.596194078     0.266469355  0.266469355  0.266469355


 
 k-points in units of 2pi/SCALE and weight: 10x10x10                                
   0.05000000  0.05000000  0.05000000       0.002
  -0.05000000  0.15000000  0.15000000       0.006
  -0.15000000  0.25000000  0.25000000       0.006
  -0.25000000  0.35000000  0.35000000       0.006
  -0.35000000  0.45000000  0.45000000       0.006
   0.55000000 -0.45000000 -0.45000000       0.006
   0.45000000 -0.35000000 -0.35000000       0.006
   0.35000000 -0.25000000 -0.25000000       0.006
   0.25000000 -0.15000000 -0.15000000       0.006
   0.15000000 -0.05000000 -0.05000000       0.006
   0.05000000  0.05000000  0.25000000       0.006
  -0.05000000  0.15000000  0.35000000       0.012
  -0.15000000  0.25000000  0.45000000       0.012
  -0.25000000  0.35000000  0.55000000       0.012
   0.65000000 -0.55000000 -0.35000000       0.012
   0.55000000 -0.45000000 -0.25000000       0.012
   0.45000000 -0.35000000 -0.15000000       0.012
   0.35000000 -0.25000000 -0.05000000       0.012
   0.25000000 -0.15000000  0.05000000       0.012
   0.05000000  0.05000000  0.45000000       0.006
  -0.05000000  0.15000000  0.55000000       0.012
  -0.15000000  0.25000000  0.65000000       0.012
   0.75000000 -0.65000000 -0.25000000       0.012
   0.65000000 -0.55000000 -0.15000000       0.012
   0.55000000 -0.45000000 -0.05000000       0.012
   0.45000000 -0.35000000  0.05000000       0.012
   0.35000000 -0.25000000  0.15000000       0.012
   0.05000000  0.05000000  0.65000000       0.006
  -0.05000000  0.15000000  0.75000000       0.012
   0.85000000 -0.75000000 -0.15000000       0.012
   0.75000000 -0.65000000 -0.05000000       0.012
   0.65000000 -0.55000000  0.05000000       0.012
   0.55000000 -0.45000000  0.15000000       0.012
   0.45000000 -0.35000000  0.25000000       0.012
   0.05000000  0.05000000  0.85000000       0.006
   0.95000000 -0.85000000 -0.05000000       0.012
   0.85000000 -0.75000000  0.05000000       0.012
   0.75000000 -0.65000000  0.15000000       0.012
   0.65000000 -0.55000000  0.25000000       0.012
   0.55000000 -0.45000000  0.35000000       0.012
   0.05000000  0.05000000 -0.95000000       0.006
  -0.05000000  0.15000000 -0.85000000       0.012
  -0.15000000  0.25000000 -0.75000000       0.012
  -0.25000000  0.35000000 -0.65000000       0.012
   0.05000000  0.05000000 -0.75000000       0.006
  -0.05000000  0.15000000 -0.65000000       0.012
  -0.15000000  0.25000000 -0.55000000       0.012
   0.05000000  0.05000000 -0.55000000       0.006
  -0.05000000  0.15000000 -0.45000000       0.012
   0.05000000  0.05000000 -0.35000000       0.006
   0.15000000  0.15000000  0.15000000       0.002
   0.05000000  0.25000000  0.25000000       0.006
  -0.05000000  0.35000000  0.35000000       0.006
  -0.15000000  0.45000000  0.45000000       0.006
   0.75000000 -0.45000000 -0.45000000       0.006
   0.65000000 -0.35000000 -0.35000000       0.006
   0.55000000 -0.25000000 -0.25000000       0.006
   0.45000000 -0.15000000 -0.15000000       0.006
   0.15000000  0.15000000  0.35000000       0.006
   0.05000000  0.25000000  0.45000000       0.012
  -0.05000000  0.35000000  0.55000000       0.012
   0.85000000 -0.55000000 -0.35000000       0.012
   0.75000000 -0.45000000 -0.25000000       0.012
   0.65000000 -0.35000000 -0.15000000       0.012
   0.55000000 -0.25000000 -0.05000000       0.012
   0.15000000  0.15000000  0.55000000       0.006
   0.05000000  0.25000000  0.65000000       0.012
   0.95000000 -0.65000000 -0.25000000       0.012
   0.85000000 -0.55000000 -0.15000000       0.012
   0.75000000 -0.45000000 -0.05000000       0.012
   0.65000000 -0.35000000  0.05000000       0.012
   0.15000000  0.15000000  0.75000000       0.006
   1.05000000 -0.75000000 -0.15000000       0.012
   0.95000000 -0.65000000 -0.05000000       0.012
   0.85000000 -0.55000000  0.05000000       0.012
   0.75000000 -0.45000000  0.15000000       0.012
   0.15000000  0.15000000 -1.05000000       0.006
   0.05000000  0.25000000 -0.95000000       0.012
  -0.05000000  0.35000000 -0.85000000       0.012
   0.15000000  0.15000000 -0.85000000       0.006
   0.05000000  0.25000000 -0.75000000       0.012
   0.15000000  0.15000000 -0.65000000       0.006
   0.25000000  0.25000000  0.25000000       0.002
   0.15000000  0.35000000  0.35000000       0.006
   0.05000000  0.45000000  0.45000000       0.006
   0.95000000 -0.45000000 -0.45000000       0.006
   0.85000000 -0.35000000 -0.35000000       0.006
   0.75000000 -0.25000000 -0.25000000       0.006
   0.25000000  0.25000000  0.45000000       0.006
   0.15000000  0.35000000  0.55000000       0.012
   1.05000000 -0.55000000 -0.35000000       0.012
   0.95000000 -0.45000000 -0.25000000       0.012
   0.85000000 -0.35000000 -0.15000000       0.012
   0.25000000  0.25000000  0.65000000       0.006
   1.15000000 -0.65000000 -0.25000000       0.012
   1.05000000 -0.55000000 -0.15000000       0.012
   0.95000000 -0.45000000 -0.05000000       0.012
   0.25000000  0.25000000 -1.15000000       0.006
   0.15000000  0.35000000 -1.05000000       0.012
   0.25000000  0.25000000 -0.95000000       0.006
   0.35000000  0.35000000  0.35000000       0.002
   0.25000000  0.45000000  0.45000000       0.006
   1.15000000 -0.45000000 -0.45000000       0.006
   1.05000000 -0.35000000 -0.35000000       0.006
   0.35000000  0.35000000  0.55000000       0.006
   1.25000000 -0.55000000 -0.35000000       0.012
   1.15000000 -0.45000000 -0.25000000       0.012
   0.35000000  0.35000000 -1.25000000       0.006
   0.45000000  0.45000000  0.45000000       0.002
   1.35000000 -0.45000000 -0.45000000       0.006
 
 k-points in reciprocal lattice and weights: 10x10x10                                
   0.05000000  0.05000000  0.05000000       0.002
   0.15000000  0.05000000  0.05000000       0.006
   0.25000000  0.05000000  0.05000000       0.006
   0.35000000  0.05000000  0.05000000       0.006
   0.45000000  0.05000000  0.05000000       0.006
  -0.45000000  0.05000000  0.05000000       0.006
  -0.35000000  0.05000000  0.05000000       0.006
  -0.25000000  0.05000000  0.05000000       0.006
  -0.15000000  0.05000000  0.05000000       0.006
  -0.05000000  0.05000000  0.05000000       0.006
   0.15000000  0.15000000  0.05000000       0.006
   0.25000000  0.15000000  0.05000000       0.012
   0.35000000  0.15000000  0.05000000       0.012
   0.45000000  0.15000000  0.05000000       0.012
  -0.45000000  0.15000000  0.05000000       0.012
  -0.35000000  0.15000000  0.05000000       0.012
  -0.25000000  0.15000000  0.05000000       0.012
  -0.15000000  0.15000000  0.05000000       0.012
  -0.05000000  0.15000000  0.05000000       0.012
   0.25000000  0.25000000  0.05000000       0.006
   0.35000000  0.25000000  0.05000000       0.012
   0.45000000  0.25000000  0.05000000       0.012
  -0.45000000  0.25000000  0.05000000       0.012
  -0.35000000  0.25000000  0.05000000       0.012
  -0.25000000  0.25000000  0.05000000       0.012
  -0.15000000  0.25000000  0.05000000       0.012
  -0.05000000  0.25000000  0.05000000       0.012
   0.35000000  0.35000000  0.05000000       0.006
   0.45000000  0.35000000  0.05000000       0.012
  -0.45000000  0.35000000  0.05000000       0.012
  -0.35000000  0.35000000  0.05000000       0.012
  -0.25000000  0.35000000  0.05000000       0.012
  -0.15000000  0.35000000  0.05000000       0.012
  -0.05000000  0.35000000  0.05000000       0.012
   0.45000000  0.45000000  0.05000000       0.006
  -0.45000000  0.45000000  0.05000000       0.012
  -0.35000000  0.45000000  0.05000000       0.012
  -0.25000000  0.45000000  0.05000000       0.012
  -0.15000000  0.45000000  0.05000000       0.012
  -0.05000000  0.45000000  0.05000000       0.012
  -0.45000000 -0.45000000  0.05000000       0.006
  -0.35000000 -0.45000000  0.05000000       0.012
  -0.25000000 -0.45000000  0.05000000       0.012
  -0.15000000 -0.45000000  0.05000000       0.012
  -0.35000000 -0.35000000  0.05000000       0.006
  -0.25000000 -0.35000000  0.05000000       0.012
  -0.15000000 -0.35000000  0.05000000       0.012
  -0.25000000 -0.25000000  0.05000000       0.006
  -0.15000000 -0.25000000  0.05000000       0.012
  -0.15000000 -0.15000000  0.05000000       0.006
   0.15000000  0.15000000  0.15000000       0.002
   0.25000000  0.15000000  0.15000000       0.006
   0.35000000  0.15000000  0.15000000       0.006
   0.45000000  0.15000000  0.15000000       0.006
  -0.45000000  0.15000000  0.15000000       0.006
  -0.35000000  0.15000000  0.15000000       0.006
  -0.25000000  0.15000000  0.15000000       0.006
  -0.15000000  0.15000000  0.15000000       0.006
   0.25000000  0.25000000  0.15000000       0.006
   0.35000000  0.25000000  0.15000000       0.012
   0.45000000  0.25000000  0.15000000       0.012
  -0.45000000  0.25000000  0.15000000       0.012
  -0.35000000  0.25000000  0.15000000       0.012
  -0.25000000  0.25000000  0.15000000       0.012
  -0.15000000  0.25000000  0.15000000       0.012
   0.35000000  0.35000000  0.15000000       0.006
   0.45000000  0.35000000  0.15000000       0.012
  -0.45000000  0.35000000  0.15000000       0.012
  -0.35000000  0.35000000  0.15000000       0.012
  -0.25000000  0.35000000  0.15000000       0.012
  -0.15000000  0.35000000  0.15000000       0.012
   0.45000000  0.45000000  0.15000000       0.006
  -0.45000000  0.45000000  0.15000000       0.012
  -0.35000000  0.45000000  0.15000000       0.012
  -0.25000000  0.45000000  0.15000000       0.012
  -0.15000000  0.45000000  0.15000000       0.012
  -0.45000000 -0.45000000  0.15000000       0.006
  -0.35000000 -0.45000000  0.15000000       0.012
  -0.25000000 -0.45000000  0.15000000       0.012
  -0.35000000 -0.35000000  0.15000000       0.006
  -0.25000000 -0.35000000  0.15000000       0.012
  -0.25000000 -0.25000000  0.15000000       0.006
   0.25000000  0.25000000  0.25000000       0.002
   0.35000000  0.25000000  0.25000000       0.006
   0.45000000  0.25000000  0.25000000       0.006
  -0.45000000  0.25000000  0.25000000       0.006
  -0.35000000  0.25000000  0.25000000       0.006
  -0.25000000  0.25000000  0.25000000       0.006
   0.35000000  0.35000000  0.25000000       0.006
   0.45000000  0.35000000  0.25000000       0.012
  -0.45000000  0.35000000  0.25000000       0.012
  -0.35000000  0.35000000  0.25000000       0.012
  -0.25000000  0.35000000  0.25000000       0.012
   0.45000000  0.45000000  0.25000000       0.006
  -0.45000000  0.45000000  0.25000000       0.012
  -0.35000000  0.45000000  0.25000000       0.012
  -0.25000000  0.45000000  0.25000000       0.012
  -0.45000000 -0.45000000  0.25000000       0.006
  -0.35000000 -0.45000000  0.25000000       0.012
  -0.35000000 -0.35000000  0.25000000       0.006
   0.35000000  0.35000000  0.35000000       0.002
   0.45000000  0.35000000  0.35000000       0.006
  -0.45000000  0.35000000  0.35000000       0.006
  -0.35000000  0.35000000  0.35000000       0.006
   0.45000000  0.45000000  0.35000000       0.006
  -0.45000000  0.45000000  0.35000000       0.012
  -0.35000000  0.45000000  0.35000000       0.012
  -0.45000000 -0.45000000  0.35000000       0.006
   0.45000000  0.45000000  0.45000000       0.002
  -0.45000000  0.45000000  0.45000000       0.006
 
 position of ions in fractional coordinates (direct lattice) 
   0.00000000  0.00000000  0.00000000
   0.25000000  0.25000000  0.25000000
   0.75000000  0.75000000  0.75000000
 
 position of ions in cartesian coordinates  (Angst):
   0.00000000  0.00000000  0.00000000
   1.62500000  1.62500000  1.62500000
   4.87500000  4.87500000  4.87500000
 


--------------------------------------------------------------------------------------------------------


 k-point  1 :   0.0500 0.0500 0.0500  plane waves:     851
 k-point  2 :   0.1500 0.0500 0.0500  plane waves:     828
 k-point  3 :   0.2500 0.0500 0.0500  plane waves:     815
 k-point  4 :   0.3500 0.0500 0.0500  plane waves:     823
 k-point  5 :   0.4500 0.0500 0.0500  plane waves:     815
 k-point  6 :  -0.4500 0.0500 0.0500  plane waves:     812
 k-point  7 :  -0.3500 0.0500 0.0500  plane waves:     814
 k-point  8 :  -0.2500 0.0500 0.0500  plane waves:     822
 k-point  9 :  -0.1500 0.0500 0.0500  plane waves:     824
 k-point 10 :  -0.0500 0.0500 0.0500  plane waves:     833
 k-point 11 :   0.1500 0.1500 0.0500  plane waves:     827
 k-point 12 :   0.2500 0.1500 0.0500  plane waves:     824
 k-point 13 :   0.3500 0.1500 0.0500  plane waves:     822
 k-point 14 :   0.4500 0.1500 0.0500  plane waves:     815
 k-point 15 :  -0.4500 0.1500 0.0500  plane waves:     815
 k-point 16 :  -0.3500 0.1500 0.0500  plane waves:     814
 k-point 17 :  -0.2500 0.1500 0.0500  plane waves:     813
 k-point 18 :  -0.1500 0.1500 0.0500  plane waves:     825
 k-point 19 :  -0.0500 0.1500 0.0500  plane waves:     824
 k-point 20 :   0.2500 0.2500 0.0500  plane waves:     824
 k-point 21 :   0.3500 0.2500 0.0500  plane waves:     825
 k-point 22 :   0.4500 0.2500 0.0500  plane waves:     813
 k-point 23 :  -0.4500 0.2500 0.0500  plane waves:     813
 k-point 24 :  -0.3500 0.2500 0.0500  plane waves:     817
 k-point 25 :  -0.2500 0.2500 0.0500  plane waves:     814
 k-point 26 :  -0.1500 0.2500 0.0500  plane waves:     818
 k-point 27 :  -0.0500 0.2500 0.0500  plane waves:     818
 k-point 28 :   0.3500 0.3500 0.0500  plane waves:     817
 k-point 29 :   0.4500 0.3500 0.0500  plane waves:     810
 k-point 30 :  -0.4500 0.3500 0.0500  plane waves:     808
 k-point 31 :  -0.3500 0.3500 0.0500  plane waves:     809
 k-point 32 :  -0.2500 0.3500 0.0500  plane waves:     811
 k-point 33 :  -0.1500 0.3500 0.0500  plane waves:     815
 k-point 34 :  -0.0500 0.3500 0.0500  plane waves:     814
 k-point 35 :   0.4500 0.4500 0.0500  plane waves:     806
 k-point 36 :  -0.4500 0.4500 0.0500  plane waves:     804
 k-point 37 :  -0.3500 0.4500 0.0500  plane waves:     807
 k-point 38 :  -0.2500 0.4500 0.0500  plane waves:     813
 k-point 39 :  -0.1500 0.4500 0.0500  plane waves:     818
 k-point 40 :  -0.0500 0.4500 0.0500  plane waves:     811
 k-point 41 :  -0.4500-0.4500 0.0500  plane waves:     797
 k-point 42 :  -0.3500-0.4500 0.0500  plane waves:     803
 k-point 43 :  -0.2500-0.4500 0.0500  plane waves:     811
 k-point 44 :  -0.1500-0.4500 0.0500  plane waves:     813
 k-point 45 :  -0.3500-0.3500 0.0500  plane waves:     811
 k-point 46 :  -0.2500-0.3500 0.0500  plane waves:     817
 k-point 47 :  -0.1500-0.3500 0.0500  plane waves:     815
 k-point 48 :  -0.2500-0.2500 0.0500  plane waves:     826
 k-point 49 :  -0.1500-0.2500 0.0500  plane waves:     826
 k-point 50 :  -0.1500-0.1500 0.0500  plane waves:     822
 k-point 51 :   0.1500 0.1500 0.1500  plane waves:     824
 k-point 52 :   0.2500 0.1500 0.1500  plane waves:     824
 k-point 53 :   0.3500 0.1500 0.1500  plane waves:     823
 k-point 54 :   0.4500 0.1500 0.1500  plane waves:     815
 k-point 55 :  -0.4500 0.1500 0.1500  plane waves:     813
 k-point 56 :  -0.3500 0.1500 0.1500  plane waves:     814
 k-point 57 :  -0.2500 0.1500 0.1500  plane waves:     815
 k-point 58 :  -0.1500 0.1500 0.1500  plane waves:     820
 k-point 59 :   0.2500 0.2500 0.1500  plane waves:     822
 k-point 60 :   0.3500 0.2500 0.1500  plane waves:     827
 k-point 61 :   0.4500 0.2500 0.1500  plane waves:     820
 k-point 62 :  -0.4500 0.2500 0.1500  plane waves:     815
 k-point 63 :  -0.3500 0.2500 0.1500  plane waves:     812
 k-point 64 :  -0.2500 0.2500 0.1500  plane waves:     812
 k-point 65 :  -0.1500 0.2500 0.1500  plane waves:     823
 k-point 66 :   0.3500 0.3500 0.1500  plane waves:     818
 k-point 67 :   0.4500 0.3500 0.1500  plane waves:     818
 k-point 68 :  -0.4500 0.3500 0.1500  plane waves:     815
 k-point 69 :  -0.3500 0.3500 0.1500  plane waves:     812
 k-point 70 :  -0.2500 0.3500 0.1500  plane waves:     814
 k-point 71 :  -0.1500 0.3500 0.1500  plane waves:     814
 k-point 72 :   0.4500 0.4500 0.1500  plane waves:     812
 k-point 73 :  -0.4500 0.4500 0.1500  plane waves:     807
 k-point 74 :  -0.3500 0.4500 0.1500  plane waves:     807
 k-point 75 :  -0.2500 0.4500 0.1500  plane waves:     809
 k-point 76 :  -0.1500 0.4500 0.1500  plane waves:     816
 k-point 77 :  -0.4500-0.4500 0.1500  plane waves:     806
 k-point 78 :  -0.3500-0.4500 0.1500  plane waves:     804
 k-point 79 :  -0.2500-0.4500 0.1500  plane waves:     811
 k-point 80 :  -0.3500-0.3500 0.1500  plane waves:     808
 k-point 81 :  -0.2500-0.3500 0.1500  plane waves:     808
 k-point 82 :  -0.2500-0.2500 0.1500  plane waves:     820
 k-point 83 :   0.2500 0.2500 0.2500  plane waves:     815
 k-point 84 :   0.3500 0.2500 0.2500  plane waves:     819
 k-point 85 :   0.4500 0.2500 0.2500  plane waves:     817
 k-point 86 :  -0.4500 0.2500 0.2500  plane waves:     810
 k-point 87 :  -0.3500 0.2500 0.2500  plane waves:     814
 k-point 88 :  -0.2500 0.2500 0.2500  plane waves:     808
 k-point 89 :   0.3500 0.3500 0.2500  plane waves:     817
 k-point 90 :   0.4500 0.3500 0.2500  plane waves:     812
 k-point 91 :  -0.4500 0.3500 0.2500  plane waves:     812
 k-point 92 :  -0.3500 0.3500 0.2500  plane waves:     815
 k-point 93 :  -0.2500 0.3500 0.2500  plane waves:     811
 k-point 94 :   0.4500 0.4500 0.2500  plane waves:     810
 k-point 95 :  -0.4500 0.4500 0.2500  plane waves:     809
 k-point 96 :  -0.3500 0.4500 0.2500  plane waves:     811
 k-point 97 :  -0.2500 0.4500 0.2500  plane waves:     807
 k-point 98 :  -0.4500-0.4500 0.2500  plane waves:     815
 k-point 99 :  -0.3500-0.4500 0.2500  plane waves:     812
 k-point ** :  -0.3500-0.3500 0.2500  plane waves:     814
 k-point ** :   0.3500 0.3500 0.3500  plane waves:     823
 k-point ** :   0.4500 0.3500 0.3500  plane waves:     816
 k-point ** :  -0.4500 0.3500 0.3500  plane waves:     813
 k-point ** :  -0.3500 0.3500 0.3500  plane waves:     812
 k-point ** :   0.4500 0.4500 0.3500  plane waves:     814
 k-point ** :  -0.4500 0.4500 0.3500  plane waves:     815
 k-point ** :  -0.3500 0.4500 0.3500  plane waves:     816
 k-point ** :  -0.4500-0.4500 0.3500  plane waves:     812
 k-point ** :   0.4500 0.4500 0.4500  plane waves:     814
 k-point ** :  -0.4500 0.4500 0.4500  plane waves:     812

 maximum and minimum number of plane-waves per node :       851      797

 maximum number of plane-waves:       851
 maximum index in each direction: 
   IXMAX=    6   IYMAX=    6   IZMAX=    6
   IXMIN=   -6   IYMIN=   -6   IZMIN=   -6

 NGX is ok and might be reduce to  26
 NGY is ok and might be reduce to  26
 NGZ is ok and might be reduce to  26

 serial   3D FFT for wavefunctions
 parallel 3D FFT for charge:
    minimum data exchange during FFTs selected (reduces bandwidth)


 total amount of memory used by VASP on root node    60576. kBytes
========================================================================

   base      :      30000. kBytes
   nonl-proj :      27032. kBytes
   fftplans  :        620. kBytes
   grid      :       1316. kBytes
   one-center:         46. kBytes
   wavefun   :       1562. kBytes
 
     INWAV:  cpu time    0.00: real time    0.00
 Broyden mixing: mesh for mixing (old mesh)
   NGX = 13   NGY = 13   NGZ = 13
  (NGX  = 40   NGY  = 40   NGZ  = 40)
  gives a total of   2197 points

 initial charge density was supplied:
 charge density of overlapping atoms calculated
 number of electron      17.0000000 magnetization 
 keeping initial charge density in first step


--------------------------------------------------------------------------------------------------------


 Maximum index for augmentation-charges          806 (set IRDMAX)


--------------------------------------------------------------------------------------------------------


 First call to EWALD:  gamma=   0.433
 Maximum number of real-space cells 3x 3x 3
 Maximum number of reciprocal cells 3x 3x 3

 FEWALD executed in parallel
    FEWALD:  cpu time    0.00: real time    0.00


----------------------------------------- Iteration    1(   1)  ---------------------------------------


    POTLOK:  cpu time    0.01: real time    0.01
    SETDIJ:  cpu time    0.01: real time    0.01
     EDDAV:  cpu time    1.60: real time    1.62
       DOS:  cpu time    0.00: real time    0.00
    --------------------------------------------
      LOOP:  cpu time    1.63: real time    1.66

 eigenvalue-minimisations  :  2688
 total energy-change (2. order) : 0.4426878E+02  (-0.5214440E+03)
 number of electron      17.0000000 magnetization 
 augmentation part       17.0000000 magnetization 

 Free energy of the ion-electron system (eV)
  ---------------------------------------------------
  alpha Z        PSCENC =        40.80783850
  Ewald energy   TEWEN  =      -844.89818274
  -Hartree energ DENC   =      -301.79684970
  -exchange      EXHF   =         0.00000000
  -V(xc)+E(xc)   XCENC  =       -35.65468134
  PAW double counting   =       816.04175667     -733.29636931
  entropy T*S    EENTRO =         0.00080150
  eigenvalues    EBANDS =        66.05745255
  atomic energy  EATOM  =      1037.00701138
  ---------------------------------------------------
  free energy    TOTEN  =        44.26877750 eV

  energy without entropy =       44.26797600  energy(sigma->0) =       44.26851034


--------------------------------------------------------------------------------------------------------




----------------------------------------- Iteration    1(   2)  ---------------------------------------


     EDDAV:  cpu time    1.83: real time    1.85
       DOS:  cpu time    0.00: real time    0.00
    --------------------------------------------
      LOOP:  cpu time    1.83: real time    1.86

 eigenvalue-minimisations  :  3156
 total energy-change (2. order) :-0.5693380E+02  (-0.5563175E+02)
 number of electron      17.0000000 magnetization 
 augmentation part       17.0000000 magnetization 

 Free energy of the ion-electron system (eV)
  ---------------------------------------------------
  alpha Z        PSCENC =        40.80783850
  Ewald energy   TEWEN  =      -844.89818274
  -Hartree energ DENC   =      -301.79684970
  -exchange      EXHF   =         0.00000000
  -V(xc)+E(xc)   XCENC  =       -35.65468134
  PAW double counting   =       816.04175667     -733.29636931
  entropy T*S    EENTRO =        -0.00070569
  eigenvalues    EBANDS =         9.12515615
  atomic energy  EATOM  =      1037.00701138
  ---------------------------------------------------
  free energy    TOTEN  =       -12.66502609 eV

  energy without entropy =      -12.66432039  energy(sigma->0) =      -12.66479086


--------------------------------------------------------------------------------------------------------




----------------------------------------- Iteration    1(   3)  ---------------------------------------


     EDDAV:  cpu time    2.29: real time    2.31
       DOS:  cpu time    0.00: real time    0.00
    --------------------------------------------
      LOOP:  cpu time    2.30: real time    2.34

 eigenvalue-minimisations  :  3840
 total energy-change (2. order) :-0.1513900E+01  (-0.1507627E+01)
 number of electron      17.0000000 magnetization 
 augmentation part       17.0000000 magnetization 

 Free energy of the ion-electron system (eV)
  ---------------------------------------------------
  alpha Z        PSCENC =        40.80783850
  Ewald energy   TEWEN  =      -844.89818274
  -Hartree energ DENC   =      -301.79684970
  -exchange      EXHF   =         0.00000000
  -V(xc)+E(xc)   XCENC  =       -35.65468134
  PAW double counting   =       816.04175667     -733.29636931
  entropy T*S    EENTRO =        -0.00101981
  eigenvalues    EBANDS =         7.61157070
  atomic energy  EATOM  =      1037.00701138
  ---------------------------------------------------
  free energy    TOTEN  =       -14.17892566 eV

  energy without entropy =      -14.17790584  energy(sigma->0) =      -14.17858572


--------------------------------------------------------------------------------------------------------




----------------------------------------- Iteration    1(   4)  ---------------------------------------


     EDDAV:  cpu time    2.53: real time    2.56
       DOS:  cpu time    0.00: real time    0.00
    --------------------------------------------
      LOOP:  cpu time    2.54: real time    2.57

 eigenvalue-minimisations  :  4092
 total energy-change (2. order) :-0.6032096E-02  (-0.6029701E-02)
 number of electron      17.0000000 magnetization 
 augmentation part       17.0000000 magnetization 

 Free energy of the ion-electron system (eV)
  ---------------------------------------------------
  alpha Z        PSCENC =        40.80783850
  Ewald energy   TEWEN  =      -844.89818274
  -Hartree energ DENC   =      -301.79684970
  -exchange      EXHF   =         0.00000000
  -V(xc)+E(xc)   XCENC  =       -35.65468134
  PAW double counting   =       816.04175667     -733.29636931
  entropy T*S    EENTRO =        -0.00106545
  eigenvalues    EBANDS =         7.60558424
  atomic energy  EATOM  =      1037.00701138
  ---------------------------------------------------
  free energy    TOTEN  =       -14.18495775 eV

  energy without entropy =      -14.18389231  energy(sigma->0) =      -14.18460260


--------------------------------------------------------------------------------------------------------




----------------------------------------- Iteration    1(   5)  ---------------------------------------


     EDDAV:  cpu time    2.48: real time    2.51
       DOS:  cpu time    0.00: real time    0.00
    CHARGE:  cpu time    0.15: real time    0.15
    MIXING:  cpu time    0.00: real time    0.00
    --------------------------------------------
      LOOP:  cpu time    2.64: real time    2.67

 eigenvalue-minimisations  :  4032
 total energy-change (2. order) :-0.5145151E-05  (-0.5145568E-05)
 number of electron      16.9999971 magnetization 
 augmentation part        3.3696347 magnetization 

 Broyden mixing:
  rms(total) = 0.61850E+00    rms(broyden)= 0.61836E+00
  rms(prec ) = 0.17495E+01
  weight for this iteration     100.00

 Free energy of the ion-electron system (eV)
  ---------------------------------------------------
  alpha Z        PSCENC =        40.80783850
  Ewald energy   TEWEN  =      -844.89818274
  -Hartree energ DENC   =      -301.79684970
  -exchange      EXHF   =         0.00000000
  -V(xc)+E(xc)   XCENC  =       -35.65468134
  PAW double counting   =       816.04175667     -733.29636931
  entropy T*S    EENTRO =        -0.00106543
  eigenvalues    EBANDS =         7.60557908
  atomic energy  EATOM  =      1037.00701138
  ---------------------------------------------------
  free energy    TOTEN  =       -14.18496290 eV

  energy without entropy =      -14.18389747  energy(sigma->0) =      -14.18460775


--------------------------------------------------------------------------------------------------------




----------------------------------------- Iteration    1(   6)  ---------------------------------------


    POTLOK:  cpu time    0.01: real time    0.01
    SETDIJ:  cpu time    0.00: real time    0.00
     EDDAV:  cpu time    1.68: real time    1.69
       DOS:  cpu time    0.00: real time    0.00
    CHARGE:  cpu time    0.15: real time    0.15
    MIXING:  cpu time    0.00: real time    0.00
    --------------------------------------------
      LOOP:  cpu time    1.84: real time    1.87

 eigenvalue-minimisations  :  2856
 total energy-change (2. order) : 0.8215063E+00  (-0.9507113E+00)
 number of electron      16.9999967 magnetization 
 augmentation part        3.8006191 magnetization 

 Broyden mixing:
  rms(total) = 0.14408E+00    rms(broyden)= 0.14401E+00
  rms(prec ) = 0.44976E+00
  weight for this iteration     100.00

 eigenvalues of (default mixing * dielectric matrix)
  average eigenvalue GAMMA=   0.9460
  0.9460

 Free energy of the ion-electron system (eV)
  ---------------------------------------------------
  alpha Z        PSCENC =        40.80783850
  Ewald energy   TEWEN  =      -844.89818274
  -Hartree energ DENC   =      -281.26673269
  -exchange      EXHF   =         0.00000000
  -V(xc)+E(xc)   XCENC  =       -36.37341193
  PAW double counting   =       787.08852048     -706.20932342
  entropy T*S    EENTRO =         0.00181877
  eigenvalues    EBANDS =        -9.52099491
  atomic energy  EATOM  =      1037.00701138
  ---------------------------------------------------
  free energy    TOTEN  =       -13.36345656 eV

  energy without entropy =      -13.36527533  energy(sigma->0) =      -13.36406281


--------------------------------------------------------------------------------------------------------




----------------------------------------- Iteration    1(   7)  ---------------------------------------


    POTLOK:  cpu time    0.01: real time    0.01
    SETDIJ:  cpu time    0.01: real time    0.01
     EDDAV:  cpu time    1.77: real time    1.78
       DOS:  cpu time    0.00: real time    0.00
    CHARGE:  cpu time    0.17: real time    0.17
    MIXING:  cpu time    0.00: real time    0.00
    --------------------------------------------
      LOOP:  cpu time    1.96: real time    1.98

 eigenvalue-minimisations  :  3000
 total energy-change (2. order) : 0.1045705E+00  (-0.5074559E-01)
 number of electron      16.9999968 magnetization 
 augmentation part        3.7285273 magnetization 

 Broyden mixing:
  rms(total) = 0.90368E-01    rms(broyden)= 0.90368E-01
  rms(prec ) = 0.23597E+00
  weight for this iteration     100.00

 eigenvalues of (default mixing * dielectric matrix)
  average eigenvalue GAMMA=   1.6096
  0.8310  2.3882

 Free energy of the ion-electron system (eV)
  ---------------------------------------------------
  alpha Z        PSCENC =        40.80783850
  Ewald energy   TEWEN  =      -844.89818274
  -Hartree energ DENC   =      -284.68057062
  -exchange      EXHF   =         0.00000000
  -V(xc)+E(xc)   XCENC  =       -36.23224077
  PAW double counting   =       804.99330601     -725.04735817
  entropy T*S    EENTRO =         0.00175982
  eigenvalues    EBANDS =        -5.21044948
  atomic energy  EATOM  =      1037.00701138
  ---------------------------------------------------
  free energy    TOTEN  =       -13.25888608 eV

  energy without entropy =      -13.26064590  energy(sigma->0) =      -13.25947269


--------------------------------------------------------------------------------------------------------




----------------------------------------- Iteration    1(   8)  ---------------------------------------


    POTLOK:  cpu time    0.01: real time    0.01
    SETDIJ:  cpu time    0.00: real time    0.00
     EDDAV:  cpu time    1.92: real time    1.94
       DOS:  cpu time    0.00: real time    0.00
    CHARGE:  cpu time    0.17: real time    0.17
    MIXING:  cpu time    0.00: real time    0.00
    --------------------------------------------
      LOOP:  cpu time    2.11: real time    2.14

 eigenvalue-minimisations  :  3216
 total energy-change (2. order) : 0.3029318E-01  (-0.8703131E-02)
 number of electron      16.9999968 magnetization 
 augmentation part        3.7200754 magnetization 

 Broyden mixing:
  rms(total) = 0.21248E-01    rms(broyden)= 0.21247E-01
  rms(prec ) = 0.74880E-01
  weight for this iteration     100.00

 eigenvalues of (default mixing * dielectric matrix)
  average eigenvalue GAMMA=   1.3508
  2.4225  0.8149  0.8149

 Free energy of the ion-electron system (eV)
  ---------------------------------------------------
  alpha Z        PSCENC =        40.80783850
  Ewald energy   TEWEN  =      -844.89818274
  -Hartree energ DENC   =      -284.27941991
  -exchange      EXHF   =         0.00000000
  -V(xc)+E(xc)   XCENC  =       -36.19044614
  PAW double counting   =       821.29050194     -742.88905755
  entropy T*S    EENTRO =         0.00152784
  eigenvalues    EBANDS =        -4.07836623
  atomic energy  EATOM  =      1037.00701138
  ---------------------------------------------------
  free energy    TOTEN  =       -13.22859291 eV

  energy without entropy =      -13.23012075  energy(sigma->0) =      -13.22910219


--------------------------------------------------------------------------------------------------------




----------------------------------------- Iteration    1(   9)  ---------------------------------------


    POTLOK:  cpu time    0.01: real time    0.01
    SETDIJ:  cpu time    0.00: real time    0.00
     EDDAV:  cpu time    1.93: real time    1.95
       DOS:  cpu time    0.00: real time    0.00
    CHARGE:  cpu time    0.17: real time    0.17
    MIXING:  cpu time    0.00: real time    0.00
    --------------------------------------------
      LOOP:  cpu time    2.12: real time    2.15

 eigenvalue-minimisations  :  3252
 total energy-change (2. order) : 0.2148373E-02  (-0.1353454E-02)
 number of electron      16.9999968 magnetization 
 augmentation part        3.7349171 magnetization 

 Broyden mixing:
  rms(total) = 0.72671E-02    rms(broyden)= 0.72646E-02
  rms(prec ) = 0.18070E-01
  weight for this iteration     100.00

 eigenvalues of (default mixing * dielectric matrix)
  average eigenvalue GAMMA=   1.7234
  0.9149  0.9149  2.7923  2.2717

 Free energy of the ion-electron system (eV)
  ---------------------------------------------------
  alpha Z        PSCENC =        40.80783850
  Ewald energy   TEWEN  =      -844.89818274
  -Hartree energ DENC   =      -283.62839792
  -exchange      EXHF   =         0.00000000
  -V(xc)+E(xc)   XCENC  =       -36.21246084
  PAW double counting   =       818.90031274     -740.44128529
  entropy T*S    EENTRO =         0.00152306
  eigenvalues    EBANDS =        -4.76280342
  atomic energy  EATOM  =      1037.00701138
  ---------------------------------------------------
  free energy    TOTEN  =       -13.22644453 eV

  energy without entropy =      -13.22796760  energy(sigma->0) =      -13.22695222


--------------------------------------------------------------------------------------------------------




----------------------------------------- Iteration    1(  10)  ---------------------------------------


    POTLOK:  cpu time    0.01: real time    0.01
    SETDIJ:  cpu time    0.00: real time    0.00
     EDDAV:  cpu time    1.92: real time    1.94
       DOS:  cpu time    0.00: real time    0.00
    CHARGE:  cpu time    0.17: real time    0.17
    MIXING:  cpu time    0.00: real time    0.00
    --------------------------------------------
      LOOP:  cpu time    2.11: real time    2.13

 eigenvalue-minimisations  :  3204
 total energy-change (2. order) : 0.3767814E-04  (-0.9658107E-04)
 number of electron      16.9999968 magnetization 
 augmentation part        3.7371081 magnetization 

 Broyden mixing:
  rms(total) = 0.16032E-02    rms(broyden)= 0.16009E-02
  rms(prec ) = 0.44970E-02
  weight for this iteration     100.00

 eigenvalues of (default mixing * dielectric matrix)
  average eigenvalue GAMMA=   1.5528
  2.6235  2.2605  0.9053  0.9874  0.9874

 Free energy of the ion-electron system (eV)
  ---------------------------------------------------
  alpha Z        PSCENC =        40.80783850
  Ewald energy   TEWEN  =      -844.89818274
  -Hartree energ DENC   =      -283.57868457
  -exchange      EXHF   =         0.00000000
  -V(xc)+E(xc)   XCENC  =       -36.20797123
  PAW double counting   =       818.29787258     -739.83647665
  entropy T*S    EENTRO =         0.00152823
  eigenvalues    EBANDS =        -4.81934235
  atomic energy  EATOM  =      1037.00701138
  ---------------------------------------------------
  free energy    TOTEN  =       -13.22640686 eV

  energy without entropy =      -13.22793508  energy(sigma->0) =      -13.22691626


--------------------------------------------------------------------------------------------------------




----------------------------------------- Iteration    1(  11)  ---------------------------------------


    POTLOK:  cpu time    0.01: real time    0.01
    SETDIJ:  cpu time    0.00: real time    0.00
     EDDAV:  cpu time    2.38: real time    2.40
       DOS:  cpu time    0.00: real time    0.00
    CHARGE:  cpu time    0.17: real time    0.17
    MIXING:  cpu time    0.00: real time    0.00
    --------------------------------------------
      LOOP:  cpu time    2.57: real time    2.60

 eigenvalue-minimisations  :  3924
 total energy-change (2. order) : 0.4270664E-05  (-0.1372939E-05)
 number of electron      16.9999968 magnetization 
 augmentation part        3.7369697 magnetization 

 Broyden mixing:
  rms(total) = 0.10451E-02    rms(broyden)= 0.10450E-02
  rms(prec ) = 0.33550E-02
  weight for this iteration     100.00

 eigenvalues of (default mixing * dielectric matrix)
  average eigenvalue GAMMA=   1.7431
  2.8766  2.6040  2.0608  0.9245  0.9245  1.0681

 Free energy of the ion-electron system (eV)
  ---------------------------------------------------
  alpha Z        PSCENC =        40.80783850
  Ewald energy   TEWEN  =      -844.89818274
  -Hartree energ DENC   =      -283.58877351
  -exchange      EXHF   =         0.00000000
  -V(xc)+E(xc)   XCENC  =       -36.20782488
  PAW double counting   =       818.38462638     -739.91937830
  entropy T*S    EENTRO =         0.00152715
  eigenvalues    EBANDS =        -4.81324657
  atomic energy  EATOM  =      1037.00701138
  ---------------------------------------------------
  free energy    TOTEN  =       -13.22640258 eV

  energy without entropy =      -13.22792974  energy(sigma->0) =      -13.22691164


--------------------------------------------------------------------------------------------------------




----------------------------------------- Iteration    1(  12)  ---------------------------------------


    POTLOK:  cpu time    0.01: real time    0.01
    SETDIJ:  cpu time    0.00: real time    0.00
     EDDAV:  cpu time    2.34: real time    2.36
       DOS:  cpu time    0.00: real time    0.00
    CHARGE:  cpu time    0.17: real time    0.17
    MIXING:  cpu time    0.00: real time    0.00
    --------------------------------------------
      LOOP:  cpu time    2.53: real time    2.56

 eigenvalue-minimisations  :  3936
 total energy-change (2. order) : 0.3813132E-05  (-0.2396965E-05)
 number of electron      16.9999968 magnetization 
 augmentation part        3.7364370 magnetization 

 Broyden mixing:
  rms(total) = 0.19616E-03    rms(broyden)= 0.19608E-03
  rms(prec ) = 0.29739E-03
  weight for this iteration     100.00

 eigenvalues of (default mixing * dielectric matrix)
  average eigenvalue GAMMA=   1.6551
  2.9693  2.4990  2.1404  0.9136  0.9136  1.0749  1.0749

 Free energy of the ion-electron system (eV)
  ---------------------------------------------------
  alpha Z        PSCENC =        40.80783850
  Ewald energy   TEWEN  =      -844.89818274
  -Hartree energ DENC   =      -283.63216826
  -exchange      EXHF   =         0.00000000
  -V(xc)+E(xc)   XCENC  =       -36.20614349
  PAW double counting   =       818.55552252     -740.08145627
  entropy T*S    EENTRO =         0.00152676
  eigenvalues    EBANDS =        -4.78034717
  atomic energy  EATOM  =      1037.00701138
  ---------------------------------------------------
  free energy    TOTEN  =       -13.22639877 eV

  energy without entropy =      -13.22792553  energy(sigma->0) =      -13.22690769


--------------------------------------------------------------------------------------------------------




----------------------------------------- Iteration    1(  13)  ---------------------------------------


    POTLOK:  cpu time    0.01: real time    0.01
    SETDIJ:  cpu time    0.00: real time    0.00
     EDDAV:  cpu time    1.27: real time    1.28
       DOS:  cpu time    0.00: real time    0.00
    --------------------------------------------
      LOOP:  cpu time    1.29: real time    1.30

 eigenvalue-minimisations  :  1968
 total energy-change (2. order) : 0.9253199E-08  (-0.9959179E-07)
 number of electron      16.9999968 magnetization 
 augmentation part        3.7364370 magnetization 

 Free energy of the ion-electron system (eV)
  ---------------------------------------------------
  alpha Z        PSCENC =        40.80783850
  Ewald energy   TEWEN  =      -844.89818274
  -Hartree energ DENC   =      -283.63560255
  -exchange      EXHF   =         0.00000000
  -V(xc)+E(xc)   XCENC  =       -36.20600575
  PAW double counting   =       818.55482457     -740.08202406
  entropy T*S    EENTRO =         0.00152695
  eigenvalues    EBANDS =        -4.77578504
  atomic energy  EATOM  =      1037.00701138
  ---------------------------------------------------
  free energy    TOTEN  =       -13.22639876 eV

  energy without entropy =      -13.22792571  energy(sigma->0) =      -13.22690775


--------------------------------------------------------------------------------------------------------




 average (electrostatic) potential at core
  the test charge radii are     1.2098  1.0406
  (the norm of the test charge is              1.0000)
       1 -48.0588       2 -74.9522       3 -74.9522
 
 
 
 E-fermi :   4.2192     XC(G=0):  -9.7129     alpha+bet : -9.6690


 k-point     1 :       0.0500    0.0500    0.0500
  band No.  band energies     occupation 
      1      -4.7321      2.00000
      2      -1.2495      2.00000
      3      -1.2314      2.00000
      4      -1.2314      2.00000
      5      -0.5184      2.00000
      6      -0.5184      2.00000
      7       4.7369     -0.00154
      8       6.3060     -0.00000
      9       6.7301     -0.00000
     10       6.7301     -0.00000
     11       7.4765     -0.00000
     12       7.4765     -0.00000

 k-point     2 :       0.1500    0.0500    0.0500
  band No.  band energies     occupation 
      1      -4.5876      2.00000
      2      -1.3106      2.00000
      3      -1.2022      2.00000
      4      -1.1960      2.00000
      5      -0.5350      2.00000
      6      -0.5117      2.00000
      7       4.3555      0.09353
      8       5.2292     -0.00000
      9       6.0525     -0.00000
     10       6.6627     -0.00000
     11       7.4239     -0.00000
     12       7.7841     -0.00000

 k-point     3 :       0.2500    0.0500    0.0500
  band No.  band energies     occupation 
      1      -4.2370      2.00000
      2      -1.4238      2.00000
      3      -1.1396      2.00000
      4      -1.1345      2.00000
      5      -0.5461      2.00000
      6      -0.5036      2.00000
      7       2.8607      2.00000
      8       4.7976     -0.00034
      9       5.9281     -0.00000
     10       5.9355     -0.00000
     11       7.5814     -0.00000
     12       7.5914     -0.00000

 k-point     4 :       0.3500    0.0500    0.0500
  band No.  band energies     occupation 
      1      -3.7211      2.00000
      2      -1.5169      2.00000
      3      -1.0787      2.00000
      4      -1.0787      2.00000
      5      -0.5291      2.00000
      6      -0.4804      2.00000
      7       1.3184      2.00000
      8       4.5128     -0.05807
      9       5.2957     -0.00000
     10       6.0417     -0.00000
     11       7.1405     -0.00000
     12       7.4489     -0.00000

 k-point     5 :       0.4500    0.0500    0.0500
  band No.  band energies     occupation 
      1      -3.1802      2.00000
      2      -1.4870      2.00000
      3      -1.0467      2.00000
      4      -1.0432      2.00000
      5      -0.4842      2.00000
      6      -0.4541      2.00000
      7       0.0672      2.00000
      8       4.3447      0.13576
      9       4.8299     -0.00014
     10       6.2223     -0.00000
     11       6.7822     -0.00000
     12       7.3725     -0.00000

 k-point     6 :      -0.4500    0.0500    0.0500
  band No.  band energies     occupation 
      1      -2.9840      2.00000
      2      -1.3929      2.00000
      3      -1.0408      2.00000
      4      -1.0207      2.00000
      5      -0.4524      2.00000
      6      -0.4520      2.00000
      7      -0.4173      2.00000
      8       4.3828      0.01091
      9       4.6093     -0.01870
     10       6.2701     -0.00000
     11       6.7013     -0.00000
     12       7.4336     -0.00000

 k-point     7 :      -0.3500    0.0500    0.0500
  band No.  band energies     occupation 
      1      -3.3452      2.00000
      2      -1.5190      2.00000
      3      -1.0547      2.00000
      4      -1.0518      2.00000
      5      -0.4990      2.00000
      6      -0.4605      2.00000
      7       0.4352      2.00000
      8       4.6332     -0.01266
      9       4.6605     -0.00775
     10       6.1326     -0.00000
     11       6.9255     -0.00000
     12       7.6435     -0.00000

 k-point     8 :      -0.2500    0.0500    0.0500
  band No.  band energies     occupation 
      1      -3.9060      2.00000
      2      -1.4951      2.00000
      3      -1.0952      2.00000
      4      -1.0945      2.00000
      5      -0.5412      2.00000
      6      -0.4881      2.00000
      7       1.8081      2.00000
      8       4.9538     -0.00000
      9       4.9771     -0.00000
     10       6.0757     -0.00000
     11       7.2048     -0.00000
     12       7.9877     -0.00000

 k-point     9 :      -0.1500    0.0500    0.0500
  band No.  band energies     occupation 
      1      -4.3750      2.00000
      2      -1.3861      2.00000
      3      -1.1595      2.00000
      4      -1.1567      2.00000
      5      -0.5485      2.00000
      6      -0.5043      2.00000
      7       3.4012      2.00000
      8       5.1860     -0.00000
[...]
      7       2.3847      2.00000
      8       3.0548      2.00000
      9       4.7893      2.00000
     10      10.3425     -0.00000
     11      10.7762     -0.00000
     12      11.6479     -0.00000

 k-point    97 :      -0.2500    0.4500    0.2500
  band No.  band energies     occupation 
      1      -0.6448      2.00000
      2      -0.5159      2.00000
      3       0.1008      2.00000
      4       0.4160      2.00000
      5       0.6926      2.00000
      6       1.2876      2.00000
      7       2.3311      2.00000
      8       2.8261      2.00000
      9       4.4948      2.00000
     10      10.3245     -0.00000
     11      11.1814     -0.00000
     12      11.5450     -0.00000

 k-point    98 :      -0.4500   -0.4500    0.2500
  band No.  band energies     occupation 
      1      -1.1153      2.00000
      2      -0.5101      2.00000
      3       0.0913      2.00000
      4       0.5164      2.00000
      5       1.0132      2.00000
      6       1.0514      2.00000
      7       1.8334      2.00000
      8       3.7423      2.00000
      9       5.3644      2.00000
     10       8.5538     -0.00000
     11      11.1334     -0.00000
     12      12.5745      0.00000

 k-point    99 :      -0.3500   -0.4500    0.2500
  band No.  band energies     occupation 
      1      -0.8426      2.00000
      2      -0.3972      2.00000
      3      -0.0122      2.00000
      4       0.6310      2.00000
      5       0.7132      2.00000
      6       1.1716      2.00000
      7       2.0194      2.00000
      8       3.1765      2.00000
      9       4.8992      2.00000
     10       9.1221     -0.00000
     11      11.1571     -0.00000
     12      12.1353      0.00000

 k-point   100 :      -0.3500   -0.3500    0.2500
  band No.  band energies     occupation 
      1      -0.9226      2.00000
      2      -0.3455      2.00000
      3      -0.0365      2.00000
      4       0.5867      2.00000
      5       0.9641      2.00000
      6       0.9811      2.00000
      7       1.9149      2.00000
      8       3.2605      2.00000
      9       5.2534      2.00000
     10       8.5135     -0.00000
     11      11.0659     -0.00000
     12      12.7347      0.00000

 k-point   101 :       0.3500    0.3500    0.3500
  band No.  band energies     occupation 
      1      -2.6218      2.00000
      2      -0.3106      2.00000
      3       0.1059      2.00000
      4       0.1059      2.00000
      5       0.9233      2.00000
      6       0.9233      2.00000
      7       2.7531      2.00000
      8       7.3796     -0.00001
      9       7.3796     -0.00001
     10       9.7130     -0.00000
     11      10.6951     -0.00000
     12      10.6951     -0.00000

 k-point   102 :       0.4500    0.3500    0.3500
  band No.  band energies     occupation 
      1      -2.2938      2.00000
      2      -0.3319      2.00000
      3       0.1518      2.00000
      4       0.1691      2.00000
      5       0.8737      2.00000
      6       1.0033      2.00000
      7       2.3029      2.00000
      8       6.0871      2.00029
      9       7.2971     -0.00009
     10       9.6782     -0.00000
     11      10.6006     -0.00000
     12      10.7046     -0.00000

 k-point   103 :      -0.4500    0.3500    0.3500
  band No.  band energies     occupation 
      1      -1.7821      2.00000
      2      -0.4030      2.00000
      3       0.2183      2.00000
      4       0.3141      2.00000
      5       0.8465      2.00000
      6       0.9356      2.00000
      7       2.1923      2.00000
      8       4.4833      2.00000
      9       6.6420      1.24518
     10       9.1505     -0.00000
     11      11.3401     -0.00000
     12      11.7347     -0.00000

 k-point   104 :      -0.3500    0.3500    0.3500
  band No.  band energies     occupation 
      1      -1.2167      2.00000
      2      -0.4195      2.00000
      3       0.2224      2.00000
      4       0.4862      2.00000
      5       0.7375      2.00000
      6       0.8701      2.00000
      7       2.4388      2.00000
      8       3.1482      2.00000
      9       5.8761      2.00000
     10       8.7595     -0.00000
     11      12.0747     -0.00000
     12      12.4845      0.00000

 k-point   105 :       0.4500    0.4500    0.3500
  band No.  band energies     occupation 
      1      -2.1073      2.00000
      2      -0.2794      2.00000
      3       0.1753      2.00000
      4       0.1779      2.00000
      5       0.9427      2.00000
      6       1.0097      2.00000
      7       1.8054      2.00000
      8       6.4714      2.05023
      9       6.6235      1.39243
     10       9.3142     -0.00000
     11      11.0402     -0.00000
     12      11.1086     -0.00000

 k-point   106 :      -0.4500    0.4500    0.3500
  band No.  band energies     occupation 
      1      -1.7419      2.00000
      2      -0.3348      2.00000
      3       0.2295      2.00000
      4       0.2850      2.00000
      5       0.9333      2.00000
      6       0.9943      2.00000
      7       1.6512      2.00000
      8       5.1544      2.00000
      9       6.2429      2.00984
     10       9.4731     -0.00000
     11      10.5451     -0.00000
     12      12.2539      0.00000

 k-point   107 :      -0.3500    0.4500    0.3500
  band No.  band energies     occupation 
      1      -1.2583      2.00000
      2      -0.4244      2.00000
      3       0.2306      2.00000
      4       0.4642      2.00000
      5       0.7080      2.00000
      6       1.0414      2.00000
      7       1.9461      2.00000
      8       3.8158      2.00000
      9       5.5363      2.00000
     10       9.4336     -0.00000
     11      11.0755     -0.00000
     12      12.5390      0.00000

 k-point   108 :      -0.4500   -0.4500    0.3500
  band No.  band energies     occupation 
      1      -1.5589      2.00000
      2      -0.3392      2.00000
      3       0.2371      2.00000
      4       0.3287      2.00000
      5       0.9767      2.00000
      6       0.9905      2.00000
      7       1.5141      2.00000
      8       4.7545      2.00000
      9       6.0993      2.00040
     10       8.8981     -0.00000
     11      11.6018     -0.00000
     12      12.0430     -0.00000

 k-point   109 :       0.4500    0.4500    0.4500
  band No.  band energies     occupation 
      1      -2.0934      2.00000
      2      -0.0475      2.00000
      3       0.1290      2.00000
      4       0.1290      2.00000
      5       0.9841      2.00000
      6       0.9841      2.00000
      7       1.3547      2.00000
      8       7.0299     -0.02942
      9       7.0299     -0.02942
     10       9.8965     -0.00000
     11      10.3661     -0.00000
     12      10.5280     -0.00000

 k-point   110 :      -0.4500    0.4500    0.4500
  band No.  band energies     occupation 
      1      -1.9028      2.00000
      2      -0.1320      2.00000
      3       0.1842      2.00000
      4       0.2494      2.00000
      5       0.9713      2.00000
      6       1.0033      2.00000
      7       1.2153      2.00000
      8       6.1158      2.00061
      9       6.7799      0.21444
     10       9.4140     -0.00000
     11      10.7952     -0.00000
     12      10.8430     -0.00000


--------------------------------------------------------------------------------------------------------


 soft charge-density along one line, spin component           1
         0         1         2         3         4         5         6         7         8         9
 total charge-density along one line
 
 pseudopotential strength for first ion, spin component:           1
-10.038   0.000   0.000   0.000  -0.000   0.000   0.000   0.000  -0.000   0.000  -0.056   0.000  -0.000   0.000   0.000   0.000
  0.000   0.000 -10.038   0.000   0.000   0.000   0.000   0.000  -0.000   0.000  -0.000   0.000  -0.056   0.000  -0.000   0.000
 -0.000   0.000   0.000   0.000  -9.991   0.000   0.000   0.000   0.000   0.000   0.000   0.000  -0.000   0.000  -0.061   0.000
  0.000   0.000   0.000   0.000   0.000   0.000 -10.038   0.000   0.000   0.000  -0.000   0.000  -0.000   0.000  -0.000   0.000
 -0.000   0.000  -0.000   0.000   0.000   0.000   0.000   0.000  -9.991   0.000   0.000   0.000   0.000   0.000  -0.000   0.000
 -0.056   0.000  -0.000   0.000   0.000   0.000  -0.000   0.000   0.000   0.000   0.278   0.000   0.000   0.000  -0.000   0.000
 -0.000   0.000  -0.056   0.000  -0.000   0.000  -0.000   0.000   0.000   0.000   0.000   0.000   0.278   0.000   0.000   0.000
  0.000   0.000  -0.000   0.000  -0.061   0.000  -0.000   0.000  -0.000   0.000  -0.000   0.000   0.000   0.000   0.278   0.000
 -0.000   0.000  -0.000   0.000  -0.000   0.000  -0.056   0.000  -0.000   0.000   0.000   0.000   0.000   0.000   0.000   0.000
  0.000   0.000   0.000   0.000  -0.000   0.000  -0.000   0.000  -0.061   0.000  -0.000   0.000  -0.000   0.000   0.000   0.000
 -0.000   0.000  -0.000   0.000   0.000   0.000  -0.000   0.000   0.000   0.000  -0.000   0.000  -0.000   0.000  -0.000   0.000
  0.000   0.000   0.000   0.000  -0.000   0.000   0.000   0.000  -0.000   0.000  -0.000   0.000  -0.000   0.000   0.000   0.000
 -0.000   0.000   0.000   0.000  -0.000   0.000  -0.000   0.000  -0.000   0.000   0.000   0.000  -0.000   0.000   0.000   0.000
 -0.000   0.000   0.000   0.000   0.000   0.000  -0.000   0.000  -0.000   0.000   0.000   0.000  -0.000   0.000  -0.000   0.000
  0.000   0.000  -0.000   0.000   0.000   0.000   0.000   0.000  -0.000   0.000  -0.000   0.000   0.000   0.000  -0.000   0.000
  0.000   0.000  -0.000   0.000   0.000   0.000   0.000   0.000   0.000   0.000  -0.000   0.000   0.000   0.000  -0.000   0.000
  0.000   0.000  -0.000   0.000  -0.000   0.000   0.000   0.000   0.000   0.000  -0.000   0.000   0.000   0.000   0.000   0.000
 -0.000   0.000   0.000   0.000  -0.000   0.000  -0.000   0.000   0.000   0.000   0.000   0.000  -0.000   0.000   0.000   0.000
 total augmentation occupancy for first ion, spin component:           1
  1.857  -0.000   0.000   0.000  -0.000   0.112   0.000  -0.000   0.000   0.000   0.000  -0.000   0.000   0.000   0.000   0.000
 -0.000   1.857   0.000  -0.000   0.000   0.000   0.112  -0.000   0.000   0.000   0.000   0.000   0.000   0.000   0.000   0.000
  0.000   0.000   1.922  -0.000   0.000  -0.000   0.000  -0.055  -0.000  -0.000   0.000  -0.000   0.000   0.000   0.000   0.000
  0.000  -0.000   0.000   1.857  -0.000   0.000   0.000   0.000   0.112   0.000   0.000  -0.000   0.000   0.000   0.000   0.000
 -0.000   0.000   0.000  -0.000   1.922  -0.000  -0.000  -0.000   0.000  -0.055  -0.000   0.000   0.000   0.000   0.000   0.000
  0.112   0.000  -0.000   0.000   0.000   0.147  -0.000  -0.000  -0.000  -0.000   0.000   0.000   0.000   0.000   0.000   0.000
  0.000   0.112   0.000   0.000  -0.000  -0.000   0.147  -0.000  -0.000   0.000   0.000   0.000   0.000   0.000   0.000   0.000
 -0.000  -0.000  -0.055  -0.000   0.000  -0.000  -0.000   0.096  -0.000   0.000  -0.000  -0.000   0.000   0.000   0.000   0.000
  0.000   0.000  -0.000   0.112   0.000   0.000  -0.000  -0.000   0.147  -0.000   0.000   0.000   0.000   0.000   0.000   0.000
  0.000   0.000   0.000  -0.000  -0.055  -0.000  -0.000   0.000  -0.000   0.096   0.000   0.000   0.000   0.000   0.000   0.000
 -0.000   0.000   0.000   0.000  -0.000   0.000   0.000   0.000   0.000   0.000   1.633  -0.178   0.000   0.000   0.000   0.000
 -0.000   0.000  -0.000   0.000   0.000  -0.000   0.000  -0.000  -0.000   0.000  -0.178   0.213   0.000   0.000   0.000   0.000
  0.000   0.000   0.000   0.000   0.000   0.000   0.000   0.000   0.000   0.000   0.000   0.000   0.344   0.000   0.000  -0.009
  0.000   0.000   0.000   0.000   0.000   0.000   0.000   0.000   0.000   0.000   0.000   0.000   0.000   0.344   0.000  -0.000
  0.000   0.000   0.000   0.000   0.000   0.000   0.000   0.000   0.000   0.000   0.000   0.000   0.000  -0.000   0.344   0.000
  0.000   0.000   0.000   0.000   0.000   0.000   0.000   0.000   0.000   0.000   0.000   0.000  -0.009  -0.000   0.000   0.001
  0.000   0.000   0.000   0.000   0.000   0.000   0.000   0.000   0.000   0.000   0.000   0.000   0.000  -0.009  -0.000  -0.000
  0.000   0.000   0.000   0.000   0.000   0.000   0.000   0.000   0.000   0.000   0.000   0.000  -0.000   0.000  -0.009   0.000


------------------------ aborting loop because EDIFF is reached ----------------------------------------


    CHARGE:  cpu time    0.16: real time    0.16
    FORLOC:  cpu time    0.00: real time    0.00
    FORNL :  cpu time    0.08: real time    0.08
    STRESS:  cpu time    1.29: real time    1.31
    FORCOR:  cpu time    0.01: real time    0.01
    FORHAR:  cpu time    0.00: real time    0.00
    MIXING:  cpu time    0.00: real time    0.00
    OFIELD:  cpu time    0.00: real time    0.00

  FORCE on cell =-STRESS in cart. coord.  units (eV):
  Direction    XX          YY          ZZ          XY          YZ          ZX
  --------------------------------------------------------------------------------------
  Alpha Z    52.91978    52.91978    52.91978
  Ewald    -307.12002  -307.12002  -307.12002     0.00000     0.00000     0.00000
  Hartree    81.80800    81.80800    81.80800     0.00000     0.00000     0.00000
  E(xc)     -67.89956   -67.89956   -67.89956    -0.00000    -0.00000    -0.00000
  Local      18.12805    18.12805    18.12805     0.00001     0.00001     0.00001
  n-local     2.28536     1.03479     3.15253    -0.78113     0.73937    -0.09499
  augment    39.55224    39.55224    39.55224    -0.00001    -0.00001    -0.00001
  Kinetic   182.21650   176.72781   182.34136    -1.11737     0.98587    -0.11002
  Fock        0.00000     0.00000     0.00000     0.00000     0.00000     0.00000
  -------------------------------------------------------------------------------------
  Total      -0.02540    -0.02540    -0.02540    -0.00000    -0.00000    -0.00000
  in kB      -0.76866    -0.76866    -0.76866    -0.00000    -0.00000    -0.00000
  external pressure =       -0.77 kB  Pullay stress =        0.00 kB


 VOLUME and BASIS-vectors are now :
 -----------------------------------------------------------------------------
  energy-cutoff  :      301.20
  volume of cell :       52.94
      direct lattice vectors                 reciprocal lattice vectors
    -0.000000000  2.980290198  2.980290198    -0.167768897  0.167768897  0.167768897
     2.980290198  0.000000000  2.980290198     0.167768897 -0.167768897  0.167768897
     2.980290198  2.980290198  0.000000000     0.167768897  0.167768897 -0.167768897

  length of vectors
     4.214766818  4.214766818  4.214766818     0.290584254  0.290584254  0.290584254


 FORCES acting on ions
    electron-ion (+dipol)            ewald-force                    non-local-force                 convergence-correction
 -----------------------------------------------------------------------------------------------
   -.199E-13 -.107E-13 -.125E-13   -.886E-16 -.101E-14 -.314E-14   0.000E+00 0.000E+00 -.114E-27   -.393E-13 -.436E-13 -.424E-13
   0.602E-06 0.602E-06 0.602E-06   0.985E-14 0.282E-14 0.140E-13   -.243E-16 -.104E-16 0.791E-17   -.106E-08 -.106E-08 -.106E-08
   -.602E-06 -.602E-06 -.602E-06   -.966E-14 -.308E-14 -.120E-13   0.347E-17 0.347E-17 0.146E-16   0.106E-08 0.106E-08 0.106E-08
 -----------------------------------------------------------------------------------------------
   0.218E-12 -.176E-12 -.182E-12   0.101E-15 -.126E-14 -.123E-14   -.208E-16 -.694E-17 0.225E-16   -.382E-13 -.421E-13 -.408E-13
 
 
 POSITION                                       TOTAL-FORCE (eV/Angst)
 -----------------------------------------------------------------------------------
      0.00000     -0.00000     -0.00000        -0.000000     -0.000000      0.000000
      1.49015      1.49015      1.49015        -0.000000      0.000000     -0.000000
      4.47044      4.47044      4.47044         0.000000     -0.000000      0.000000
 -----------------------------------------------------------------------------------
    total drift:                                0.000000     -0.000000     -0.000000


--------------------------------------------------------------------------------------------------------



  FREE ENERGIE OF THE ION-ELECTRON SYSTEM (eV)
  ---------------------------------------------------
  free  energy   TOTEN  =       -14.28711000 eV

  energy  without entropy=      -14.28519647  energy(sigma->0) =      -14.28647216
 
 d Force = 0.0000000E+00[ 0.000E+00, 0.000E+00]  d Energy = 0.2046019E+00-0.205E+00
 d Force = 0.0000000E+00[ 0.000E+00, 0.000E+00]  d Ewald  =-0.3019644E+02 0.302E+02


--------------------------------------------------------------------------------------------------------


    POTLOK:  cpu time    0.01: real time    0.01


--------------------------------------------------------------------------------------------------------




--------------------------------------------------------------------------------------------------------


  
 reached required accuracy - stopping structural energy minimisation
 writing wavefunctions
     LOOP+:  cpu time   19.93: real time   20.24
    4ORBIT:  cpu time    0.00: real time    0.00

volume of typ            1:    26.9 %

volume of typ            2:    43.6 %
 
total charge     
 
# of ion     s       p       d       tot
----------------------------------------
  1        0.848   0.855   8.675  10.378
  2        0.759   0.907   0.196   1.862
  3        0.759   0.907   0.196   1.862
------------------------------------------------
tot         2.37    2.67    9.07   14.10
 
orbital moment (x)
 
# of ion   s             p             d             tot
---------------------------------------------------------------
   1     0.000000E+00  0.271245E-10 -0.151465E-08 -0.148753E-08
   2     0.000000E+00 -0.105390E-03 -0.895741E-02 -0.906280E-02
   3     0.000000E+00  0.105390E-03  0.895741E-02  0.906280E-02
----------------------------------------------------------------------------
tot      0.000000E+00 -0.116986E-09 -0.137754E-08 -0.149453E-08
 
orbital moment (y)
 
# of ion   s             p             d             tot
---------------------------------------------------------------
   1     0.000000E+00  0.310241E-10 -0.134200E-08 -0.131098E-08
   2     0.000000E+00  0.501344E-01 -0.188709E-01  0.312635E-01
   3     0.000000E+00 -0.501344E-01  0.188709E-01 -0.312635E-01
----------------------------------------------------------------------------
tot      0.000000E+00 -0.178777E-09 -0.119543E-08 -0.137421E-08
 
orbital moment (z)
 
# of ion   s             p             d             tot
---------------------------------------------------------------
   1     0.000000E+00 -0.401226E-09 -0.104469E-08 -0.144591E-08
   2     0.000000E+00  0.128295E-02  0.949373E-02  0.107767E-01
   3     0.000000E+00 -0.128295E-02 -0.949372E-02 -0.107767E-01
----------------------------------------------------------------------------
tot      0.000000E+00 -0.104098E-08 -0.759877E-09 -0.180086E-08
 

 total amount of memory used by VASP on root node    60576. kBytes
========================================================================

   base      :      30000. kBytes
   nonl-proj :      27032. kBytes
   fftplans  :        620. kBytes
   grid      :       1316. kBytes
   one-center:         46. kBytes
   wavefun   :       1562. kBytes
 
  
  
 General timing and accounting informations for this job:
 ========================================================
  
                  Total CPU time used (sec):       75.106
                            User time (sec):       73.402
                          System time (sec):        1.705
                         Elapsed time (sec):       76.903
  
                   Maximum memory used (kb):       76248.
                   Average memory used (kb):           0.
  
                          Minor page faults:        52397
                          Major page faults:            2
                 Voluntary context switches:         4537
