PROCAR new format
# of k-points:  110         # of bands:  12         # of ions:   3

 k-point    1 :    0.05000000 0.05000000 0.05000000     weight = 0.00200000

band   1 # energy   -4.03640452 # occ.  2.00000000
 
ion      s      p      d    tot
  1  0.263  0.001  0.000  0.263
  2  0.205  0.001  0.000  0.206
  3  0.205  0.001  0.000  0.206
tot  0.674  0.002  0.000  0.675
 
band   2 # energy   -0.12823307 # occ.  2.00000000
 
ion      s      p      d    tot
  1  0.000  0.000  0.790  0.790
  2  0.002  0.061  0.004  0.068
  3  0.002  0.061  0.004  0.068
tot  0.005  0.122  0.798  0.925
 
band   3 # energy   -0.10821505 # occ.  2.00000000
 
ion      s      p      d    tot
  1  0.000  0.000  0.794  0.794
  2  0.000  0.062  0.005  0.066
  3  0.000  0.062  0.005  0.066
tot  0.000  0.123  0.803  0.926
 
band   4 # energy   -0.10821505 # occ.  2.00000000
 
ion      s      p      d    tot
  1  0.000  0.000  0.794  0.794
  2  0.000  0.062  0.005  0.066
  3  0.000  0.062  0.005  0.066
tot  0.000  0.123  0.803  0.926
 
band   5 # energy    0.86984368 # occ.  2.00000000
 
ion      s      p      d    tot
  1  0.000  0.000  0.883  0.883
  2  0.000  0.000  0.016  0.016
  3  0.000  0.000  0.016  0.016
tot  0.000  0.000  0.915  0.915
 
band   6 # energy    0.86984368 # occ.  2.00000000
 
ion      s      p      d    tot
  1  0.000  0.000  0.883  0.883
  2  0.000  0.000  0.016  0.016
  3  0.000  0.000  0.016  0.016
tot  0.000  0.000  0.915  0.915
 
band   7 # energy    8.71825983 # occ. -0.00000000
 
ion      s      p      d    tot
  1  0.008  0.111  0.058  0.176
  2  0.228  0.039  0.034  0.301
  3  0.228  0.039  0.034  0.301
tot  0.464  0.188  0.127  0.779
 
band   8 # energy    9.14004697 # occ. -0.00000000
 
ion      s      p      d    tot
  1  0.014  0.177  0.006  0.197
  2  0.189  0.033  0.057  0.278
  3  0.189  0.033  0.057  0.278
tot  0.391  0.242  0.120  0.754
 
band   9 # energy    9.41744838 # occ. -0.00000000
 
ion      s      p      d    tot
  1  0.000  0.335  0.030  0.365
  2  0.000  0.054  0.106  0.160
  3  0.000  0.054  0.106  0.160
tot  0.000  0.442  0.242  0.684
 
band  10 # energy    9.41744838 # occ. -0.00000000
 
ion      s      p      d    tot
  1  0.000  0.335  0.030  0.365
  2  0.000  0.054  0.106  0.160
  3  0.000  0.054  0.106  0.160
tot  0.000  0.442  0.242  0.684
 
band  11 # energy   10.79986100 # occ. -0.00000000
 
ion      s      p      d    tot
  1  0.000  0.047  0.212  0.259
  2  0.000  0.206  0.021  0.228
  3  0.000  0.206  0.021  0.228
tot  0.000  0.460  0.255  0.715
 
band  12 # energy   10.79986100 # occ. -0.00000000
 
ion      s      p      d    tot
  1  0.000  0.047  0.212  0.259
  2  0.000  0.206  0.021  0.228
  3  0.000  0.206  0.021  0.228
tot  0.000  0.460  0.255  0.715
 

 k-point    2 :    0.15000000 0.05000000 0.05000000     weight = 0.00600000

band   1 # energy   -3.85959901 # occ.  2.00000000
 
ion      s      p      d    tot
  1  0.260  0.004  0.000  0.264
  2  0.202  0.004  0.000  0.206
  3  0.202  0.004  0.000  0.206
tot  0.664  0.013  0.001  0.677
 
band   2 # energy   -0.18680204 # occ.  2.00000000
 
ion      s      p      d    tot
  1  0.000  0.001  0.773  0.774
  2  0.014  0.056  0.004  0.073
  3  0.014  0.056  0.004  0.073
tot  0.027  0.113  0.780  0.920
 
band   3 # energy   -0.06688527 # occ.  2.00000000
 
ion      s      p      d    tot
  1  0.000  0.000  0.799  0.799
  2  0.000  0.059  0.005  0.065
  3  0.000  0.059  0.005  0.065
tot  0.000  0.118  0.810  0.928
 
band   4 # energy   -0.05793733 # occ.  2.00000000
 
ion      s      p      d    tot
  1  0.000  0.001  0.796  0.797
  2  0.000  0.060  0.005  0.065
  3  0.000  0.060  0.005  0.065
tot  0.000  0.121  0.805  0.926
 
band   5 # energy    0.84164567 # occ.  2.00000000
 
ion      s      p      d    tot
  1  0.000  0.000  0.877  0.877
  2  0.000  0.002  0.015  0.017
  3  0.000  0.002  0.015  0.017
tot  0.000  0.004  0.907  0.911
 
band   6 # energy    0.88129696 # occ.  2.00000000
 
ion      s      p      d    tot
  1  0.000  0.000  0.884  0.884
  2  0.000  0.001  0.015  0.015
  3  0.000  0.001  0.015  0.015
tot  0.000  0.001  0.913  0.914
 
band   7 # energy    7.37807626 # occ. -0.00000695
 
ion      s      p      d    tot
  1  0.049  0.189  0.094  0.332
  2  0.055  0.083  0.053  0.191
  3  0.055  0.083  0.053  0.191
tot  0.159  0.354  0.201  0.714
 
band   8 # energy    8.13420239 # occ. -0.00000000
 
ion      s      p      d    tot
  1  0.018  0.196  0.091  0.305
  2  0.068  0.088  0.053  0.209
  3  0.068  0.088  0.053  0.209
tot  0.155  0.371  0.198  0.723
 
band   9 # energy    9.36412344 # occ. -0.00000000
 
ion      s      p      d    tot
  1  0.000  0.353  0.024  0.377
  2  0.000  0.074  0.098  0.172
  3  0.000  0.074  0.098  0.172
tot  0.000  0.501  0.220  0.722
 
band  10 # energy    9.37057199 # occ. -0.00000000
 
ion      s      p      d    tot
  1  0.005  0.102  0.006  0.113
  2  0.277  0.032  0.031  0.340
  3  0.277  0.032  0.031  0.340
tot  0.559  0.165  0.069  0.792
 
band  11 # energy   10.80882796 # occ. -0.00000000
 
ion      s      p      d    tot
  1  0.000  0.038  0.211  0.249
  2  0.000  0.218  0.018  0.236
  3  0.000  0.218  0.018  0.236
tot  0.000  0.474  0.247  0.721
 
band  12 # energy   11.49760264 # occ. -0.00000000
 
ion      s      p      d    tot
  1  0.080  0.066  0.154  0.300
  2  0.019  0.178  0.025  0.222
  3  0.019  0.178  0.025  0.222
tot  0.118  0.422  0.204  0.744
 

 k-point    3 :    0.25000000 0.05000000 0.05000000     weight = 0.00600000

band   1 # energy   -3.43262783 # occ.  2.00000000
 
ion      s      p      d    tot
  1  0.253  0.011  0.005  0.269
  2  0.193  0.013  0.001  0.207
  3  0.193  0.013  0.001  0.207
tot  0.640  0.036  0.006  0.682
 
band   2 # energy   -0.28799079 # occ.  2.00000000
 
ion      s      p      d    tot
  1  0.000  0.006  0.727  0.734
  2  0.037  0.046  0.003  0.086
  3  0.037  0.046  0.003  0.086
tot  0.075  0.098  0.733  0.906
 
band   3 # energy    0.02090712 # occ.  2.00000000
 
ion      s      p      d    tot
  1  0.000  0.000  0.809  0.809
  2  0.000  0.054  0.007  0.061
  3  0.000  0.054  0.007  0.061
tot  0.000  0.108  0.823  0.931
 
band   4 # energy    0.02689424 # occ.  2.00000000
 
ion      s      p      d    tot
  1  0.000  0.001  0.802  0.803
  2  0.000  0.055  0.006  0.061
  3  0.000  0.055  0.006  0.061
tot  0.000  0.112  0.814  0.926
 
band   5 # energy    0.82436609 # occ.  2.00000000
 
ion      s      p      d    tot
  1  0.000  0.000  0.872  0.872
  2  0.000  0.004  0.013  0.018
  3  0.000  0.004  0.013  0.018
tot  0.000  0.009  0.898  0.907
 
band   6 # energy    0.89687032 # occ.  2.00000000
 
ion      s      p      d    tot
  1  0.000  0.000  0.884  0.884
  2  0.000  0.002  0.013  0.015
  3  0.000  0.002  0.013  0.015
tot  0.000  0.004  0.909  0.914
 
band   7 # energy    5.25385309 # occ.  2.00000000
 
ion      s      p      d    tot
  1  0.088  0.154  0.127  0.369
  2  0.057  0.081  0.039  0.177
  3  0.057  0.081  0.039  0.177
tot  0.202  0.316  0.205  0.722
 
band   8 # energy    7.52949387 # occ. -0.00000002
 
ion      s      p      d    tot
  1  0.016  0.211  0.088  0.315
  2  0.033  0.122  0.047  0.202
  3  0.033  0.122  0.047  0.202
tot  0.081  0.455  0.183  0.719
 
band   9 # energy    8.57119867 # occ. -0.00000000
 
ion      s      p      d    tot
  1  0.000  0.289  0.044  0.333
  2  0.000  0.135  0.066  0.201
  3  0.000  0.135  0.066  0.201
tot  0.000  0.559  0.177  0.735
 
band  10 # energy    9.60800835 # occ. -0.00000000
 
ion      s      p      d    tot
  1  0.037  0.053  0.042  0.131
  2  0.267  0.031  0.023  0.322
  3  0.267  0.031  0.023  0.322
tot  0.571  0.115  0.088  0.775
 
band  11 # energy   10.89617373 # occ. -0.00000000
 
ion      s      p      d    tot
  1  0.000  0.019  0.178  0.196
  2  0.000  0.205  0.031  0.236
  3  0.000  0.205  0.031  0.236
tot  0.000  0.429  0.240  0.668
 
band  12 # energy   11.00395616 # occ. -0.00000000
 
ion      s      p      d    tot
  1  0.032  0.023  0.091  0.146
  2  0.051  0.154  0.030  0.236
  3  0.051  0.154  0.030  0.236
tot  0.134  0.331  0.152  0.618
 

 k-point    4 :    0.35000000 0.05000000 0.05000000     weight = 0.00600000

band   1 # energy   -2.81466591 # occ.  2.00000000
 
ion      s      p      d    tot
  1  0.241  0.016  0.032  0.289
  2  0.179  0.024  0.001  0.204
  3  0.179  0.024  0.001  0.204
tot  0.598  0.065  0.034  0.698
 
band   2 # energy   -0.34366498 # occ.  2.00000000
 
ion      s      p      d    tot
  1  0.003  0.021  0.630  0.654
  2  0.069  0.037  0.002  0.109
  3  0.069  0.037  0.002  0.109
tot  0.141  0.096  0.634  0.871
 
band   3 # energy    0.09876546 # occ.  2.00000000
 
ion      s      p      d    tot
  1  0.001  0.002  0.804  0.806
  2  0.000  0.050  0.008  0.058
  3  0.000  0.050  0.008  0.058
tot  0.001  0.101  0.819  0.921
 
band   4 # energy    0.10176753 # occ.  2.00000000
 
ion      s      p      d    tot
  1  0.000  0.000  0.816  0.816
  2  0.000  0.047  0.009  0.057
  3  0.000  0.047  0.009  0.057
tot  0.000  0.095  0.834  0.929
 
band   5 # energy    0.85822989 # occ.  2.00000000
 
ion      s      p      d    tot
  1  0.000  0.001  0.876  0.877
  2  0.000  0.005  0.011  0.016
  3  0.000  0.005  0.011  0.016
tot  0.000  0.011  0.899  0.909
 
band   6 # energy    0.94167791 # occ.  2.00000000
 
ion      s      p      d    tot
  1  0.001  0.000  0.891  0.892
  2  0.000  0.002  0.011  0.013
  3  0.000  0.002  0.011  0.013
tot  0.001  0.004  0.913  0.917
 
band   7 # energy    3.33968555 # occ.  2.00000000
 
ion      s      p      d    tot
  1  0.117  0.116  0.188  0.421
  2  0.062  0.071  0.028  0.161
  3  0.062  0.071  0.028  0.161
tot  0.242  0.258  0.243  0.743
 
band   8 # energy    7.02637460 # occ. -0.03080809
 
ion      s      p      d    tot
  1  0.013  0.219  0.062  0.295
  2  0.020  0.149  0.042  0.211
  3  0.020  0.149  0.042  0.211
tot  0.053  0.518  0.146  0.717
 
band   9 # energy    7.77137381 # occ. -0.00000000
 
ion      s      p      d    tot
  1  0.000  0.263  0.029  0.292
  2  0.000  0.164  0.053  0.217
  3  0.000  0.164  0.053  0.217
tot  0.000  0.592  0.135  0.727
 
band  10 # energy    9.78256631 # occ. -0.00000000
 
ion      s      p      d    tot
  1  0.047  0.022  0.056  0.125
  2  0.206  0.044  0.025  0.275
  3  0.206  0.044  0.025  0.275
tot  0.458  0.111  0.107  0.675
 
band  11 # energy   10.52197685 # occ. -0.00000000
 
ion      s      p      d    tot
  1  0.073  0.011  0.138  0.222
  2  0.091  0.109  0.031  0.230
  3  0.091  0.109  0.031  0.230
tot  0.255  0.229  0.199  0.683
 
band  12 # energy   10.65989756 # occ. -0.00000000
 
ion      s      p      d    tot
  1  0.000  0.002  0.196  0.197
  2  0.000  0.183  0.039  0.223
  3  0.000  0.183  0.039  0.223
tot  0.000  0.368  0.274  0.643
 

 k-point    5 :    0.45000000 0.05000000 0.05000000     weight = 0.00600000

band   1 # energy   -2.19822461 # occ.  2.00000000
 
ion      s      p      d    tot
  1  0.219  0.010  0.131  0.360
  2  0.156  0.033  0.002  0.191
  3  0.156  0.033  0.002  0.191
tot  0.530  0.076  0.135  0.741
 
band   2 # energy   -0.20164345 # occ.  2.00000000
 
ion      s      p      d    tot
  1  0.010  0.065  0.395  0.469
  2  0.116  0.038  0.003  0.157
  3  0.116  0.038  0.003  0.157
tot  0.242  0.141  0.401  0.784
 
band   3 # energy    0.13878069 # occ.  2.00000000
 
ion      s      p      d    tot
  1  0.000  0.000  0.816  0.816
  2  0.000  0.044  0.010  0.053
  3  0.000  0.044  0.010  0.053
tot  0.000  0.087  0.836  0.923
 
band   4 # energy    0.14163507 # occ.  2.00000000
 
ion      s      p      d    tot
  1  0.002  0.005  0.779  0.786
  2  0.004  0.047  0.008  0.059
  3  0.004  0.047  0.008  0.059
tot  0.009  0.100  0.796  0.905
 
band   5 # energy    0.93976083 # occ.  2.00000000
 
ion      s      p      d    tot
  1  0.000  0.000  0.893  0.893
  2  0.000  0.003  0.010  0.013
  3  0.000  0.003  0.010  0.013
tot  0.000  0.006  0.913  0.919
 
band   6 # energy    0.99359569 # occ.  2.00000000
 
ion      s      p      d    tot
  1  0.005  0.000  0.895  0.900
  2  0.000  0.001  0.010  0.012
  3  0.000  0.001  0.010  0.012
tot  0.006  0.003  0.915  0.924
 
band   7 # energy    1.76967251 # occ.  2.00000000
 
ion      s      p      d    tot
  1  0.138  0.066  0.348  0.551
  2  0.050  0.054  0.020  0.124
  3  0.050  0.054  0.020  0.124
tot  0.239  0.173  0.388  0.800
 
band   8 # energy    6.73811374 # occ.  0.46832028
 
ion      s      p      d    tot
  1  0.012  0.225  0.032  0.269
  2  0.015  0.167  0.040  0.222
  3  0.015  0.167  0.040  0.222
tot  0.042  0.559  0.112  0.714
 
band   9 # energy    7.17129813 # occ. -0.00231811
 
ion      s      p      d    tot
  1  0.000  0.249  0.011  0.260
  2  0.000  0.181  0.046  0.227
  3  0.000  0.181  0.046  0.227
tot  0.000  0.611  0.103  0.714
 
band  10 # energy    9.77244258 # occ. -0.00000000
 
ion      s      p      d    tot
  1  0.006  0.006  0.053  0.065
  2  0.127  0.077  0.033  0.236
  3  0.127  0.077  0.033  0.236
tot  0.259  0.160  0.118  0.538
 
band  11 # energy   10.39021126 # occ. -0.00000000
 
ion      s      p      d    tot
  1  0.154  0.007  0.172  0.334
  2  0.157  0.054  0.024  0.234
  3  0.157  0.054  0.024  0.234
tot  0.468  0.114  0.219  0.802
 
band  12 # energy   10.55756768 # occ. -0.00000000
 
ion      s      p      d    tot
  1  0.000  0.000  0.207  0.208
  2  0.000  0.174  0.043  0.217
  3  0.000  0.174  0.043  0.217
tot  0.000  0.349  0.294  0.642
 

 k-point    6 :   -0.45000000 0.05000000 0.05000000     weight = 0.00600000

band   1 # energy   -1.99188664 # occ.  2.00000000
 
ion      s      p      d    tot
  1  0.204  0.001  0.207  0.412
  2  0.143  0.035  0.001  0.179
  3  0.143  0.035  0.001  0.179
tot  0.491  0.071  0.209  0.771
 
band   2 # energy   -0.01897837 # occ.  2.00000000
 
ion      s      p      d    tot
  1  0.001  0.085  0.317  0.403
  2  0.128  0.041  0.006  0.175
  3  0.128  0.041  0.006  0.175
tot  0.257  0.168  0.328  0.753
 
band   3 # energy    0.14413064 # occ.  2.00000000
 
ion      s      p      d    tot
  1  0.000  0.000  0.815  0.815
  2  0.000  0.043  0.010  0.053
  3  0.000  0.043  0.010  0.053
tot  0.000  0.087  0.834  0.920
 
band   4 # energy    0.19471351 # occ.  2.00000000
 
ion      s      p      d    tot
  1  0.001  0.043  0.563  0.608
  2  0.046  0.053  0.006  0.105
  3  0.046  0.053  0.006  0.105
tot  0.093  0.150  0.575  0.818
 
band   5 # energy    0.99569205 # occ.  2.00000000
 
ion      s      p      d    tot
  1  0.000  0.000  0.905  0.905
  2  0.000  0.000  0.010  0.010
  3  0.000  0.000  0.010  0.010
tot  0.000  0.000  0.924  0.925
 
band   6 # energy    1.01313661 # occ.  2.00000000
 
ion      s      p      d    tot
  1  0.022  0.003  0.854  0.879
  2  0.003  0.006  0.011  0.020
  3  0.003  0.006  0.011  0.020
tot  0.028  0.015  0.876  0.920
 
band   7 # energy    1.10526366 # occ.  2.00000000
 
ion      s      p      d    tot
  1  0.148  0.011  0.604  0.763
  2  0.010  0.035  0.018  0.064
  3  0.010  0.035  0.018  0.064
tot  0.168  0.082  0.641  0.891
 
band   8 # energy    6.76904711 # occ.  0.27253185
 
ion      s      p      d    tot
  1  0.013  0.230  0.020  0.263
  2  0.014  0.171  0.041  0.227
  3  0.014  0.171  0.041  0.227
tot  0.041  0.573  0.103  0.717
 
band   9 # energy    6.89399335 # occ. -0.06648016
 
ion      s      p      d    tot
  1  0.000  0.241  0.007  0.249
  2  0.000  0.186  0.042  0.228
  3  0.000  0.186  0.042  0.228
tot  0.000  0.614  0.092  0.705
 
band  10 # energy    9.68169523 # occ. -0.00000000
 
ion      s      p      d    tot
  1  0.004  0.001  0.074  0.079
  2  0.113  0.081  0.033  0.227
  3  0.113  0.081  0.033  0.227
tot  0.229  0.163  0.141  0.533
 
band  11 # energy   10.50478313 # occ. -0.00000000
 
ion      s      p      d    tot
  1  0.192  0.011  0.157  0.360
  2  0.182  0.030  0.022  0.233
  3  0.182  0.030  0.022  0.233
tot  0.555  0.071  0.200  0.827
 
band  12 # energy   10.61214755 # occ. -0.00000000
 
ion      s      p      d    tot
  1  0.000  0.004  0.203  0.207
  2  0.000  0.171  0.047  0.218
  3  0.000  0.171  0.047  0.218
tot  0.000  0.346  0.297  0.643
 

 k-point    7 :   -0.35000000 0.05000000 0.05000000     weight = 0.00600000

band   1 # energy   -2.38056696 # occ.  2.00000000
 
ion      s      p      d    tot
  1  0.228  0.014  0.087  0.329
  2  0.164  0.031  0.002  0.197
  3  0.164  0.031  0.002  0.197
tot  0.556  0.076  0.091  0.723
 
band   2 # energy   -0.28409816 # occ.  2.00000000
 
ion      s      p      d    tot
  1  0.008  0.046  0.494  0.547
  2  0.098  0.036  0.003  0.137
  3  0.098  0.036  0.003  0.137
tot  0.203  0.118  0.499  0.821
 
band   3 # energy    0.12928564 # occ.  2.00000000
 
ion      s      p      d    tot
  1  0.000  0.001  0.813  0.814
  2  0.000  0.046  0.009  0.055
  3  0.000  0.046  0.009  0.055
tot  0.000  0.092  0.831  0.923
 
band   4 # energy    0.13154794 # occ.  2.00000000
 
ion      s      p      d    tot
  1  0.001  0.002  0.800  0.803
  2  0.001  0.046  0.009  0.056
  3  0.001  0.046  0.009  0.056
tot  0.004  0.095  0.817  0.916
 
band   5 # energy    0.91531998 # occ.  2.00000000
 
ion      s      p      d    tot
  1  0.002  0.001  0.884  0.887
  2  0.000  0.004  0.011  0.015
  3  0.000  0.004  0.011  0.015
tot  0.003  0.008  0.905  0.917
 
band   6 # energy    0.97817142 # occ.  2.00000000
 
ion      s      p      d    tot
  1  0.000  0.000  0.900  0.900
  2  0.000  0.001  0.010  0.011
  3  0.000  0.001  0.010  0.011
tot  0.000  0.002  0.920  0.921
 
band   7 # energy    2.23807638 # occ.  2.00000000
 
ion      s      p      d    tot
  1  0.133  0.086  0.272  0.490
  2  0.059  0.061  0.022  0.142
  3  0.059  0.061  0.022  0.142
tot  0.250  0.207  0.316  0.773
 
band   8 # energy    6.98299333 # occ. -0.04999454
 
ion      s      p      d    tot
  1  0.000  0.237  0.027  0.264
  2  0.000  0.178  0.042  0.220
  3  0.000  0.178  0.042  0.220
tot  0.000  0.593  0.111  0.704
 
band   9 # energy    7.14169361 # occ. -0.00437671
 
ion      s      p      d    tot
  1  0.015  0.235  0.032  0.283
  2  0.018  0.160  0.045  0.223
  3  0.018  0.160  0.045  0.223
tot  0.051  0.555  0.123  0.729
 
band  10 # energy    9.65267394 # occ. -0.00000000
 
ion      s      p      d    tot
  1  0.024  0.003  0.086  0.112
  2  0.143  0.069  0.029  0.240
  3  0.143  0.069  0.029  0.240
tot  0.309  0.141  0.144  0.593
 
band  11 # energy   10.55753431 # occ. -0.00000000
 
ion      s      p      d    tot
  1  0.123  0.017  0.162  0.301
  2  0.127  0.080  0.028  0.235
  3  0.127  0.080  0.028  0.235
tot  0.377  0.177  0.217  0.771
 
band  12 # energy   10.82985163 # occ. -0.00000000
 
ion      s      p      d    tot
  1  0.000  0.011  0.182  0.193
  2  0.000  0.173  0.051  0.224
  3  0.000  0.173  0.051  0.224
tot  0.000  0.357  0.283  0.641
 

 k-point    8 :   -0.25000000 0.05000000 0.05000000     weight = 0.00600000

band   1 # energy   -3.03414098 # occ.  2.00000000
 
ion      s      p      d    tot
  1  0.246  0.015  0.018  0.279
  2  0.184  0.020  0.001  0.206
  3  0.184  0.020  0.001  0.206
tot  0.614  0.056  0.020  0.690
 
band   2 # energy   -0.34014180 # occ.  2.00000000
 
ion      s      p      d    tot
  1  0.002  0.014  0.672  0.688
  2  0.058  0.039  0.002  0.100
  3  0.058  0.039  0.002  0.100
tot  0.117  0.093  0.677  0.887
 
band   3 # energy    0.07962977 # occ.  2.00000000
 
ion      s      p      d    tot
  1  0.000  0.001  0.809  0.810
  2  0.000  0.050  0.008  0.058
  3  0.000  0.050  0.008  0.058
tot  0.001  0.101  0.825  0.927
 
band   4 # energy    0.08094309 # occ.  2.00000000
 
ion      s      p      d    tot
  1  0.000  0.001  0.810  0.810
  2  0.000  0.051  0.008  0.058
  3  0.000  0.051  0.008  0.058
tot  0.000  0.102  0.825  0.927
 
band   5 # energy    0.83688901 # occ.  2.00000000
 
ion      s      p      d    tot
  1  0.000  0.001  0.872  0.873
  2  0.000  0.005  0.012  0.017
  3  0.000  0.005  0.012  0.017
tot  0.001  0.011  0.896  0.908
 
band   6 # energy    0.92564919 # occ.  2.00000000
 
ion      s      p      d    tot
  1  0.000  0.000  0.889  0.889
  2  0.000  0.002  0.011  0.013
  3  0.000  0.002  0.011  0.013
tot  0.000  0.004  0.911  0.915
 
band   7 # energy    3.94543986 # occ.  2.00000000
 
ion      s      p      d    tot
  1  0.108  0.129  0.162  0.400
  2  0.061  0.075  0.031  0.167
  3  0.061  0.075  0.031  0.167
tot  0.231  0.279  0.224  0.734
 
band   8 # energy    7.38244171 # occ. -0.00000599
 
ion      s      p      d    tot
  1  0.000  0.236  0.058  0.294
  2  0.000  0.160  0.046  0.206
  3  0.000  0.160  0.046  0.206
tot  0.000  0.556  0.150  0.706
 
band   9 # energy    7.76413153 # occ. -0.00000000
 
ion      s      p      d    tot
  1  0.022  0.238  0.055  0.315
  2  0.031  0.133  0.052  0.215
  3  0.031  0.133  0.052  0.215
tot  0.083  0.503  0.158  0.745
 
band  10 # energy    9.63779602 # occ. -0.00000000
 
ion      s      p      d    tot
  1  0.036  0.031  0.069  0.136
  2  0.204  0.051  0.025  0.280
  3  0.204  0.051  0.025  0.280
tot  0.443  0.134  0.120  0.697
 
band  11 # energy   10.61565530 # occ. -0.00000000
 
ion      s      p      d    tot
  1  0.046  0.013  0.160  0.219
  2  0.064  0.139  0.031  0.234
  3  0.064  0.139  0.031  0.234
tot  0.174  0.292  0.223  0.688
 
band  12 # energy   11.22450114 # occ. -0.00000000
 
ion      s      p      d    tot
  1  0.000  0.025  0.147  0.173
  2  0.000  0.183  0.051  0.234
  3  0.000  0.183  0.051  0.234
tot  0.000  0.391  0.250  0.641
 

 k-point    9 :   -0.15000000 0.05000000 0.05000000     weight = 0.00600000

band   1 # energy   -3.60022810 # occ.  2.00000000
 
ion      s      p      d    tot
  1  0.256  0.008  0.002  0.267
  2  0.197  0.010  0.000  0.207
  3  0.197  0.010  0.000  0.207
tot  0.649  0.027  0.003  0.680
 
band   2 # energy   -0.25667532 # occ.  2.00000000
 
ion      s      p      d    tot
  1  0.000  0.003  0.747  0.750
  2  0.028  0.049  0.003  0.081
  3  0.028  0.049  0.003  0.081
tot  0.057  0.102  0.754  0.913
 
band   3 # energy   -0.00662202 # occ.  2.00000000
 
ion      s      p      d    tot
  1  0.000  0.001  0.803  0.804
  2  0.000  0.056  0.006  0.063
  3  0.000  0.056  0.006  0.063
tot  0.000  0.113  0.815  0.929
 
band   4 # energy   -0.00263433 # occ.  2.00000000
 
ion      s      p      d    tot
  1  0.000  0.001  0.802  0.803
  2  0.000  0.057  0.006  0.062
  3  0.000  0.057  0.006  0.062
tot  0.000  0.114  0.814  0.928
 
band   5 # energy    0.81983096 # occ.  2.00000000
 
ion      s      p      d    tot
  1  0.000  0.000  0.871  0.872
  2  0.000  0.004  0.014  0.018
  3  0.000  0.004  0.014  0.018
tot  0.000  0.008  0.900  0.907
 
band   6 # energy    0.89447355 # occ.  2.00000000
 
ion      s      p      d    tot
  1  0.000  0.000  0.885  0.885
  2  0.000  0.001  0.013  0.015
  3  0.000  0.001  0.013  0.015
tot  0.000  0.003  0.911  0.914
 
band   7 # energy    5.94486928 # occ.  2.00000354
 
ion      s      p      d    tot
  1  0.075  0.165  0.116  0.356
  2  0.056  0.083  0.043  0.181
  3  0.056  0.083  0.043  0.181
tot  0.186  0.331  0.202  0.719
 
band   8 # energy    7.98685433 # occ. -0.00000000
 
ion      s      p      d    tot
  1  0.000  0.239  0.080  0.319
  2  0.000  0.136  0.055  0.191
  3  0.000  0.136  0.055  0.191
tot  0.000  0.512  0.190  0.701
 
band   9 # energy    8.44125803 # occ. -0.00000000
 
ion      s      p      d    tot
  1  0.034  0.214  0.068  0.317
  2  0.082  0.082  0.056  0.221
  3  0.082  0.082  0.056  0.221
tot  0.199  0.378  0.181  0.758
 
band  10 # energy    9.55006566 # occ. -0.00000000
 
ion      s      p      d    tot
  1  0.009  0.121  0.023  0.153
  2  0.230  0.048  0.035  0.312
  3  0.230  0.048  0.035  0.312
tot  0.469  0.216  0.093  0.778
 
band  11 # energy   10.86584285 # occ. -0.00000000
 
ion      s      p      d    tot
  1  0.019  0.014  0.162  0.195
  2  0.025  0.192  0.024  0.241
  3  0.025  0.192  0.024  0.241
tot  0.068  0.398  0.210  0.676
 
band  12 # energy   11.53805529 # occ. -0.00000000
 
ion      s      p      d    tot
  1  0.012  0.043  0.077  0.132
  2  0.009  0.126  0.058  0.194
  3  0.009  0.126  0.058  0.194
tot  0.031  0.296  0.193  0.519
 

 k-point   10 :   -0.05000000 0.05000000 0.05000000     weight = 0.00600000

band   1 # energy   -3.94749150 # occ.  2.00000000
 
ion      s      p      d    tot
  1  0.261  0.002  0.000  0.264
  2  0.204  0.003  0.000  0.206
  3  0.204  0.003  0.000  0.206
tot  0.669  0.007  0.000  0.676
 
band   2 # energy   -0.16335926 # occ.  2.00000000
 
ion      s      p      d    tot
  1  0.000  0.000  0.782  0.783
  2  0.008  0.058  0.004  0.070
  3  0.008  0.058  0.004  0.070
tot  0.016  0.116  0.791  0.923
 
band   3 # energy   -0.08278025 # occ.  2.00000000
 
ion      s      p      d    tot
  1  0.000  0.000  0.795  0.796
  2  0.000  0.061  0.005  0.065
  3  0.000  0.061  0.005  0.065
tot  0.000  0.122  0.805  0.927
 
band   4 # energy   -0.08115725 # occ.  2.00000000
 
ion      s      p      d    tot
  1  0.000  0.000  0.795  0.796
  2  0.000  0.061  0.005  0.065
  3  0.000  0.061  0.005  0.065
tot  0.000  0.122  0.804  0.926
 
band   5 # energy    0.84455749 # occ.  2.00000000
 
ion      s      p      d    tot
  1  0.000  0.000  0.878  0.878
  2  0.000  0.001  0.016  0.017
  3  0.000  0.001  0.016  0.017
tot  0.000  0.003  0.909  0.912
 
band   6 # energy    0.88489474 # occ.  2.00000000
 
ion      s      p      d    tot
  1  0.000  0.000  0.885  0.885
  2  0.000  0.000  0.015  0.015
  3  0.000  0.000  0.015  0.015
tot  0.000  0.000  0.915  0.915
 
band   7 # energy    8.09652961 # occ. -0.00000000
 
ion      s      p      d    tot
  1  0.028  0.192  0.087  0.307
  2  0.073  0.077  0.056  0.206
  3  0.073  0.077  0.056  0.206
tot  0.175  0.347  0.198  0.720
 
band   8 # energy    8.70633377 # occ. -0.00000000
 
ion      s      p      d    tot
  1  0.000  0.258  0.077  0.335
  2  0.000  0.106  0.072  0.178
  3  0.000  0.106  0.072  0.178
tot  0.000  0.469  0.222  0.691
 
band   9 # energy    8.88140702 # occ. -0.00000000
 
ion      s      p      d    tot
  1  0.027  0.110  0.040  0.177
  2  0.245  0.025  0.036  0.306
  3  0.245  0.025  0.036  0.306
tot  0.518  0.159  0.113  0.790
 
band  10 # energy    9.35639377 # occ. -0.00000000
 
ion      s      p      d    tot
  1  0.014  0.293  0.007  0.313
  2  0.074  0.045  0.088  0.207
  3  0.074  0.045  0.088  0.207
tot  0.162  0.383  0.183  0.728
 
band  11 # energy   10.84118648 # occ. -0.00000000
 
ion      s      p      d    tot
  1  0.006  0.008  0.205  0.219
  2  0.021  0.222  0.009  0.252
  3  0.021  0.222  0.009  0.252
tot  0.047  0.453  0.223  0.723
 
band  12 # energy   11.66515316 # occ. -0.00000000
 
ion      s      p      d    tot
  1  0.002  0.021  0.058  0.081
  2  0.006  0.177  0.042  0.225
  3  0.006  0.177  0.042  0.225
tot  0.015  0.375  0.142  0.531
 

 k-point   11 :    0.15000000 0.15000000 0.05000000     weight = 0.00600000

band   1 # energy   -3.77037780 # occ.  2.00000000
 
ion      s      p      d    tot
  1  0.259  0.006  0.000  0.265
  2  0.200  0.006  0.000  0.206
  3  0.200  0.006  0.000  0.206
tot  0.659  0.018  0.001  0.678
 
band   2 # energy   -0.23271585 # occ.  2.00000000
 
ion      s      p      d    tot
  1  0.000  0.000  0.769  0.770
  2  0.019  0.052  0.005  0.075
  3  0.019  0.052  0.005  0.075
tot  0.038  0.104  0.779  0.921
 
band   3 # energy   -0.02886046 # occ.  2.00000000
 
ion      s      p      d    tot
  1  0.000  0.001  0.798  0.799
  2  0.000  0.059  0.005  0.064
  3  0.000  0.059  0.005  0.064
tot  0.000  0.119  0.808  0.927
 
band   4 # energy   -0.02762823 # occ.  2.00000000
 
ion      s      p      d    tot
  1  0.000  0.001  0.798  0.799
  2  0.000  0.059  0.005  0.064
  3  0.000  0.059  0.005  0.064
tot  0.000  0.119  0.808  0.927
 
band   5 # energy    0.79573530 # occ.  2.00000000
 
ion      s      p      d    tot
  1  0.000  0.000  0.868  0.868
  2  0.000  0.004  0.015  0.019
  3  0.000  0.004  0.015  0.019
tot  0.001  0.007  0.898  0.906
 
band   6 # energy    0.91357806 # occ.  2.00000000
 
ion      s      p      d    tot
  1  0.000  0.000  0.888  0.888
  2  0.000  0.000  0.014  0.014
  3  0.000  0.000  0.014  0.014
tot  0.000  0.000  0.916  0.916
 
band   7 # energy    7.37636447 # occ. -0.00000736
 
ion      s      p      d    tot
  1  0.050  0.202  0.086  0.338
  2  0.036  0.096  0.054  0.186
  3  0.036  0.096  0.054  0.186
tot  0.123  0.393  0.193  0.710
 
band   8 # energy    7.94239764 # occ. -0.00000000
 
ion      s      p      d    tot
  1  0.000  0.230  0.091  0.321
  2  0.000  0.130  0.055  0.185
  3  0.000  0.130  0.055  0.185
tot  0.000  0.490  0.201  0.690
 
band   9 # energy    8.37895750 # occ. -0.00000000
 
ion      s      p      d    tot
  1  0.070  0.203  0.056  0.328
  2  0.110  0.049  0.061  0.219
  3  0.110  0.049  0.061  0.219
tot  0.289  0.301  0.177  0.767
 
band  10 # energy    8.92402775 # occ. -0.00000000
 
ion      s      p      d    tot
  1  0.009  0.110  0.079  0.198
  2  0.211  0.053  0.031  0.295
  3  0.211  0.053  0.031  0.295
tot  0.430  0.217  0.141  0.788
 
band  11 # energy   10.91993921 # occ. -0.00000000
 
ion      s      p      d    tot
  1  0.007  0.002  0.070  0.080
  2  0.012  0.132  0.052  0.196
  3  0.012  0.132  0.052  0.196
tot  0.031  0.266  0.175  0.471
 
band  12 # energy   11.33038807 # occ. -0.00000000
 
ion      s      p      d    tot
  1  0.003  0.010  0.147  0.160
  2  0.057  0.217  0.012  0.286
  3  0.057  0.217  0.012  0.286
tot  0.118  0.444  0.171  0.733
 

 k-point   12 :    0.25000000 0.15000000 0.05000000     weight = 0.01200000

band   1 # energy   -3.42393251 # occ.  2.00000000
 
ion      s      p      d    tot
  1  0.253  0.011  0.003  0.267
  2  0.193  0.013  0.001  0.207
  3  0.193  0.013  0.001  0.207
tot  0.639  0.038  0.004  0.681
 
band   2 # energy   -0.33153951 # occ.  2.00000000
 
ion      s      p      d    tot
  1  0.000  0.002  0.743  0.745
  2  0.037  0.043  0.005  0.084
  3  0.037  0.043  0.005  0.084
tot  0.074  0.087  0.752  0.914
 
band   3 # energy    0.05524471 # occ.  2.00000000
 
ion      s      p      d    tot
  1  0.000  0.001  0.806  0.808
  2  0.000  0.054  0.006  0.061