<?xml version="1.0" encoding="ISO-8859-1"?>
<modeling>
 <generator>
  <i name="program" type="string">vasp </i>
  <i name="version" type="string">5.3.5  </i>
  <i name="subversion" type="string">31Mar14 (build Apr 24 2016 17:13:53) complex                          parallel </i>
  <i name="platform" type="string">LinuxIFC </i>
  <i name="date" type="string">2017 12 18 </i>
  <i name="time" type="string">16:57:29 </i>
 </generator>
 <incar>
  <i type="string" name="SYSTEM">AuAl2</i>
  <i type="string" name="PREC">high</i>
  <i type="int" name="IBRION">     2</i>
  <i name="EDIFF">      0.00000100</i>
  <i type="int" name="NSW">   100</i>
  <i type="int" name="ISIF">     3</i>
  <v name="RWIGS">      1.50300000      1.40200000</v>
 </incar>
 <kpoints>
  <generation param="Monkhorst-Pack">
   <v type="int" name="divisions">      10       10       10 </v>
   <v name="usershift">      0.00000000       0.00000000       0.00000000 </v>
   <v name="genvec1">      0.10000000       0.00000000       0.00000000 </v>
   <v name="genvec2">      0.00000000       0.10000000       0.00000000 </v>
   <v name="genvec3">      0.00000000       0.00000000       0.10000000 </v>
   <v name="shift">      0.50000000       0.50000000       0.50000000 </v>
  </generation>
  <varray name="kpointlist" >
   <v>       0.05000000       0.05000000       0.05000000 </v>
   <v>       0.15000000       0.05000000       0.05000000 </v>
   <v>       0.25000000       0.05000000       0.05000000 </v>
   <v>       0.35000000       0.05000000       0.05000000 </v>
   <v>       0.45000000       0.05000000       0.05000000 </v>
   <v>      -0.45000000       0.05000000       0.05000000 </v>
   <v>      -0.35000000       0.05000000       0.05000000 </v>
   <v>      -0.25000000       0.05000000       0.05000000 </v>
   <v>      -0.15000000       0.05000000       0.05000000 </v>
   <v>      -0.05000000       0.05000000       0.05000000 </v>
   <v>       0.15000000       0.15000000       0.05000000 </v>
   <v>       0.25000000       0.15000000       0.05000000 </v>
   <v>       0.35000000       0.15000000       0.05000000 </v>
   <v>       0.45000000       0.15000000       0.05000000 </v>
   <v>      -0.45000000       0.15000000       0.05000000 </v>
   <v>      -0.35000000       0.15000000       0.05000000 </v>
   <v>      -0.25000000       0.15000000       0.05000000 </v>
   <v>      -0.15000000       0.15000000       0.05000000 </v>
   <v>      -0.05000000       0.15000000       0.05000000 </v>
   <v>       0.25000000       0.25000000       0.05000000 </v>
   <v>       0.35000000       0.25000000       0.05000000 </v>
   <v>       0.45000000       0.25000000       0.05000000 </v>
   <v>      -0.45000000       0.25000000       0.05000000 </v>
   <v>      -0.35000000       0.25000000       0.05000000 </v>
   <v>      -0.25000000       0.25000000       0.05000000 </v>
   <v>      -0.15000000       0.25000000       0.05000000 </v>
   <v>      -0.05000000       0.25000000       0.05000000 </v>
   <v>       0.35000000       0.35000000       0.05000000 </v>
   <v>       0.45000000       0.35000000       0.05000000 </v>
   <v>      -0.45000000       0.35000000       0.05000000 </v>
   <v>      -0.35000000       0.35000000       0.05000000 </v>
   <v>      -0.25000000       0.35000000       0.05000000 </v>
   <v>      -0.15000000       0.35000000       0.05000000 </v>
   <v>      -0.05000000       0.35000000       0.05000000 </v>
   <v>       0.45000000       0.45000000       0.05000000 </v>
   <v>      -0.45000000       0.45000000       0.05000000 </v>
   <v>      -0.35000000       0.45000000       0.05000000 </v>
   <v>      -0.25000000       0.45000000       0.05000000 </v>
   <v>      -0.15000000       0.45000000       0.05000000 </v>
   <v>      -0.05000000       0.45000000       0.05000000 </v>
   <v>      -0.45000000      -0.45000000       0.05000000 </v>
   <v>      -0.35000000      -0.45000000       0.05000000 </v>
   <v>      -0.25000000      -0.45000000       0.05000000 </v>
   <v>      -0.15000000      -0.45000000       0.05000000 </v>
   <v>      -0.35000000      -0.35000000       0.05000000 </v>
   <v>      -0.25000000      -0.35000000       0.05000000 </v>
   <v>      -0.15000000      -0.35000000       0.05000000 </v>
   <v>      -0.25000000      -0.25000000       0.05000000 </v>
   <v>      -0.15000000      -0.25000000       0.05000000 </v>
   <v>      -0.15000000      -0.15000000       0.05000000 </v>
   <v>       0.15000000       0.15000000       0.15000000 </v>
   <v>       0.25000000       0.15000000       0.15000000 </v>
   <v>       0.35000000       0.15000000       0.15000000 </v>
   <v>       0.45000000       0.15000000       0.15000000 </v>
   <v>      -0.45000000       0.15000000       0.15000000 </v>
   <v>      -0.35000000       0.15000000       0.15000000 </v>
   <v>      -0.25000000       0.15000000       0.15000000 </v>
   <v>      -0.15000000       0.15000000       0.15000000 </v>
   <v>       0.25000000       0.25000000       0.15000000 </v>
   <v>       0.35000000       0.25000000       0.15000000 </v>
   <v>       0.45000000       0.25000000       0.15000000 </v>
   <v>      -0.45000000       0.25000000       0.15000000 </v>
   <v>      -0.35000000       0.25000000       0.15000000 </v>
   <v>      -0.25000000       0.25000000       0.15000000 </v>
   <v>      -0.15000000       0.25000000       0.15000000 </v>
   <v>       0.35000000       0.35000000       0.15000000 </v>
   <v>       0.45000000       0.35000000       0.15000000 </v>
   <v>      -0.45000000       0.35000000       0.15000000 </v>
   <v>      -0.35000000       0.35000000       0.15000000 </v>
   <v>      -0.25000000       0.35000000       0.15000000 </v>
   <v>      -0.15000000       0.35000000       0.15000000 </v>
   <v>       0.45000000       0.45000000       0.15000000 </v>
   <v>      -0.45000000       0.45000000       0.15000000 </v>
   <v>      -0.35000000       0.45000000       0.15000000 </v>
   <v>      -0.25000000       0.45000000       0.15000000 </v>
   <v>      -0.15000000       0.45000000       0.15000000 </v>
   <v>      -0.45000000      -0.45000000       0.15000000 </v>
   <v>      -0.35000000      -0.45000000       0.15000000 </v>
   <v>      -0.25000000      -0.45000000       0.15000000 </v>
   <v>      -0.35000000      -0.35000000       0.15000000 </v>
   <v>      -0.25000000      -0.35000000       0.15000000 </v>
   <v>      -0.25000000      -0.25000000       0.15000000 </v>
   <v>       0.25000000       0.25000000       0.25000000 </v>
   <v>       0.35000000       0.25000000       0.25000000 </v>
   <v>       0.45000000       0.25000000       0.25000000 </v>
   <v>      -0.45000000       0.25000000       0.25000000 </v>
   <v>      -0.35000000       0.25000000       0.25000000 </v>
   <v>      -0.25000000       0.25000000       0.25000000 </v>
   <v>       0.35000000       0.35000000       0.25000000 </v>
   <v>       0.45000000       0.35000000       0.25000000 </v>
   <v>      -0.45000000       0.35000000       0.25000000 </v>
   <v>      -0.35000000       0.35000000       0.25000000 </v>
   <v>      -0.25000000       0.35000000       0.25000000 </v>
   <v>       0.45000000       0.45000000       0.25000000 </v>
   <v>      -0.45000000       0.45000000       0.25000000 </v>
   <v>      -0.35000000       0.45000000       0.25000000 </v>
   <v>      -0.25000000       0.45000000       0.25000000 </v>
   <v>      -0.45000000      -0.45000000       0.25000000 </v>
   <v>      -0.35000000      -0.45000000       0.25000000 </v>
   <v>      -0.35000000      -0.35000000       0.25000000 </v>
   <v>       0.35000000       0.35000000       0.35000000 </v>
   <v>       0.45000000       0.35000000       0.35000000 </v>
   <v>      -0.45000000       0.35000000       0.35000000 </v>
   <v>      -0.35000000       0.35000000       0.35000000 </v>
   <v>       0.45000000       0.45000000       0.35000000 </v>
   <v>      -0.45000000       0.45000000       0.35000000 </v>
   <v>      -0.35000000       0.45000000       0.35000000 </v>
   <v>      -0.45000000      -0.45000000       0.35000000 </v>
   <v>       0.45000000       0.45000000       0.45000000 </v>
   <v>      -0.45000000       0.45000000       0.45000000 </v>
  </varray>
  <varray name="weights" >
   <v>       0.00200000 </v>
   <v>       0.00600000 </v>
   <v>       0.00600000 </v>
   <v>       0.00600000 </v>
   <v>       0.00600000 </v>
   <v>       0.00600000 </v>
   <v>       0.00600000 </v>
   <v>       0.00600000 </v>
   <v>       0.00600000 </v>
   <v>       0.00600000 </v>
   <v>       0.00600000 </v>
   <v>       0.01200000 </v>
   <v>       0.01200000 </v>
   <v>       0.01200000 </v>
   <v>       0.01200000 </v>
   <v>       0.01200000 </v>
   <v>       0.01200000 </v>
   <v>       0.01200000 </v>
   <v>       0.01200000 </v>
   <v>       0.00600000 </v>
   <v>       0.01200000 </v>
   <v>       0.01200000 </v>
   <v>       0.01200000 </v>
   <v>       0.01200000 </v>
   <v>       0.01200000 </v>
   <v>       0.01200000 </v>
   <v>       0.01200000 </v>
   <v>       0.00600000 </v>
   <v>       0.01200000 </v>
   <v>       0.01200000 </v>
   <v>       0.01200000 </v>
   <v>       0.01200000 </v>
   <v>       0.01200000 </v>
   <v>       0.01200000 </v>
   <v>       0.00600000 </v>
   <v>       0.01200000 </v>
   <v>       0.01200000 </v>
   <v>       0.01200000 </v>
   <v>       0.01200000 </v>
   <v>       0.01200000 </v>
   <v>       0.00600000 </v>
   <v>       0.01200000 </v>
   <v>       0.01200000 </v>
   <v>       0.01200000 </v>
   <v>       0.00600000 </v>
   <v>       0.01200000 </v>
   <v>       0.01200000 </v>
   <v>       0.00600000 </v>
   <v>       0.01200000 </v>
   <v>       0.00600000 </v>
   <v>       0.00200000 </v>
   <v>       0.00600000 </v>
   <v>       0.00600000 </v>
   <v>       0.00600000 </v>
   <v>       0.00600000 </v>
   <v>       0.00600000 </v>
   <v>       0.00600000 </v>
   <v>       0.00600000 </v>
   <v>       0.00600000 </v>
   <v>       0.01200000 </v>
   <v>       0.01200000 </v>
   <v>       0.01200000 </v>
   <v>       0.01200000 </v>
   <v>       0.01200000 </v>
   <v>       0.01200000 </v>
   <v>       0.00600000 </v>
   <v>       0.01200000 </v>
   <v>       0.01200000 </v>
   <v>       0.01200000 </v>
   <v>       0.01200000 </v>
   <v>       0.01200000 </v>
   <v>       0.00600000 </v>
   <v>       0.01200000 </v>
   <v>       0.01200000 </v>
   <v>       0.01200000 </v>
   <v>       0.01200000 </v>
   <v>       0.00600000 </v>
   <v>       0.01200000 </v>
   <v>       0.01200000 </v>
   <v>       0.00600000 </v>
   <v>       0.01200000 </v>
   <v>       0.00600000 </v>
   <v>       0.00200000 </v>
   <v>       0.00600000 </v>
   <v>       0.00600000 </v>
   <v>       0.00600000 </v>
   <v>       0.00600000 </v>
   <v>       0.00600000 </v>
   <v>       0.00600000 </v>
   <v>       0.01200000 </v>
   <v>       0.01200000 </v>
   <v>       0.01200000 </v>
   <v>       0.01200000 </v>
   <v>       0.00600000 </v>
   <v>       0.01200000 </v>
   <v>       0.01200000 </v>
   <v>       0.01200000 </v>
   <v>       0.00600000 </v>
   <v>       0.01200000 </v>
   <v>       0.00600000 </v>
   <v>       0.00200000 </v>
   <v>       0.00600000 </v>
   <v>       0.00600000 </v>
   <v>       0.00600000 </v>
   <v>       0.00600000 </v>
   <v>       0.01200000 </v>
   <v>       0.01200000 </v>
   <v>       0.00600000 </v>
   <v>       0.00200000 </v>
   <v>       0.00600000 </v>
  </varray>
 </kpoints>
 <parameters>
  <separator name="general" >
   <i type="string" name="SYSTEM">AuAl2</i>
   <i type="logical" name="LCOMPAT"> F  </i>
  </separator>
  <separator name="electronic" >
   <i type="string" name="PREC">high</i>
   <i name="ENMAX">    301.19625000</i>
   <i name="ENAUG">    356.67000000</i>
   <i name="EDIFF">      0.00000100</i>
   <i type="int" name="IALGO">    38</i>
   <i type="int" name="IWAVPR">    11</i>
   <i type="int" name="NBANDS">    12</i>
   <i name="NELECT">     17.00000000</i>
   <i type="int" name="TURBO">     0</i>
   <i type="int" name="IRESTART">     0</i>
   <i type="int" name="NREBOOT">     0</i>
   <i type="int" name="NMIN">     0</i>
   <i name="EREF">      0.00000000</i>
   <separator name="electronic smearing" >
    <i type="int" name="ISMEAR">     1</i>
    <i name="SIGMA">      0.20000000</i>
    <i name="KSPACING">      0.50000000</i>
    <i type="logical" name="KGAMMA"> T  </i>
   </separator>
   <separator name="electronic projectors" >
    <i type="logical" name="LREAL"> F  </i>
    <v name="ROPT">      0.00000000      0.00000000</v>
    <i type="int" name="LMAXPAW">  -100</i>
    <i type="int" name="LMAXMIX">     2</i>
    <i type="logical" name="NLSPLINE"> F  </i>
   </separator>
   <separator name="electronic startup" >
    <i type="int" name="ISTART">     0</i>
    <i type="int" name="ICHARG">     2</i>
    <i type="int" name="INIWAV">     1</i>
   </separator>
   <separator name="electronic spin" >
    <i type="int" name="ISPIN">     1</i>
    <i type="logical" name="LNONCOLLINEAR"> F  </i>
    <v name="MAGMOM">      1.00000000      1.00000000      1.00000000</v>
    <i name="NUPDOWN">     -1.00000000</i>
    <i type="logical" name="LSORBIT"> F  </i>
    <v name="SAXIS">      0.00000000      0.00000000      1.00000000</v>
    <i type="logical" name="LSPIRAL"> F  </i>
    <v name="QSPIRAL">      0.00000000      0.00000000      0.00000000</v>
    <i type="logical" name="LZEROZ"> F  </i>
   </separator>
   <separator name="electronic exchange-correlation" >
    <i type="logical" name="LASPH"> F  </i>
    <i type="logical" name="LMETAGGA"> F  </i>
   </separator>
   <separator name="electronic convergence" >
    <i type="int" name="NELM">    60</i>
    <i type="int" name="NELMDL">    -5</i>
    <i type="int" name="NELMIN">     2</i>
    <i name="ENINI">    301.19625000</i>
    <separator name="electronic convergence detail" >
     <i type="logical" name="LDIAG"> T  </i>
     <i type="logical" name="LSUBROT"> F  </i>
     <i name="WEIMIN">      0.00100000</i>
     <i name="EBREAK">      0.00000002</i>
     <i name="DEPER">      0.30000000</i>
     <i type="int" name="NRMM">     4</i>
     <i name="TIME">      0.40000000</i>
    </separator>
   </separator>
   <separator name="electronic mixer" >
    <i name="AMIX">      0.40000000</i>
    <i name="BMIX">      1.00000000</i>
    <i name="AMIN">      0.10000000</i>
    <i name="AMIX_MAG">      1.60000000</i>
    <i name="BMIX_MAG">      1.00000000</i>
    <separator name="electronic mixer details" >
     <i type="int" name="IMIX">     4</i>
     <i type="int" name="MAXMIX">   -45</i>
     <i name="WC">    100.00000000</i>
     <i type="int" name="INIMIX">     1</i>
     <i type="int" name="MIXPRE">     1</i>
     <i type="int" name="MREMOVE">     5</i>
    </separator>
   </separator>
   <separator name="electronic dipolcorrection" >
    <i type="logical" name="LDIPOL"> F  </i>
    <i type="logical" name="LMONO"> F  </i>
    <i type="int" name="IDIPOL">     0</i>
    <i name="EPSILON">      1.00000000</i>
    <v name="DIPOL">   -100.00000000   -100.00000000   -100.00000000</v>
    <i name="EFIELD">      0.00000000</i>
   </separator>
  </separator>
  <separator name="grids" >
   <i type="int" name="NGX">    28</i>
   <i type="int" name="NGY">    28</i>
   <i type="int" name="NGZ">    28</i>
   <i type="int" name="NGXF">    40</i>
   <i type="int" name="NGYF">    40</i>
   <i type="int" name="NGZF">    40</i>
   <i type="logical" name="ADDGRID"> F  </i>
  </separator>
  <separator name="ionic" >
   <i type="int" name="NSW">   100</i>
   <i type="int" name="IBRION">     2</i>
   <i type="int" name="ISIF">     3</i>
   <i name="PSTRESS">      0.00000000</i>
   <i name="EDIFFG">      0.00001000</i>
   <i type="int" name="NFREE">     1</i>
   <i name="POTIM">      0.50000000</i>
   <i name="SMASS">     -3.00000000</i>
   <i name="SCALEE">      1.00000000</i>
  </separator>
  <separator name="ionic md" >
   <i name="TEBEG">      0.00010000</i>
   <i name="TEEND">      0.00010000</i>
   <i type="int" name="NBLOCK">     1</i>
   <i type="int" name="KBLOCK">   100</i>
   <i type="int" name="NPACO">   256</i>
   <i name="APACO">     16.00000000</i>
  </separator>
  <separator name="symmetry" >
   <i type="int" name="ISYM">     2</i>
   <i name="SYMPREC">      0.00001000</i>
  </separator>
  <separator name="dos" >
   <i type="logical" name="LORBIT"> F  </i>
   <v name="RWIGS">      1.50300000      1.40200000</v>
   <i type="int" name="NEDOS">   301</i>
   <i name="EMIN">     10.00000000</i>
   <i name="EMAX">    -10.00000000</i>
   <i name="EFERMI">      0.00000000</i>
  </separator>
  <separator name="writing" >
   <i type="int" name="NWRITE">     2</i>
   <i type="logical" name="LWAVE"> T  </i>
   <i type="logical" name="LCHARG"> T  </i>
   <i type="logical" name="LPARD"> F  </i>
   <i type="logical" name="LVTOT"> F  </i>
   <i type="logical" name="LVHAR"> F  </i>
   <i type="logical" name="LELF"> F  </i>
   <i type="logical" name="LOPTICS"> F  </i>
   <v name="STM">      0.00000000      0.00000000      0.00000000      0.00000000      0.00000000      0.00000000      0.00000000</v>
  </separator>
  <separator name="performance" >
   <i type="int" name="NPAR">    12</i>
   <i type="int" name="NSIM">     4</i>
   <i type="int" name="NBLK">    -1</i>
   <i type="logical" name="LPLANE"> T  </i>
   <i type="logical" name="LSCALAPACK"> T  </i>
   <i type="logical" name="LSCAAWARE"> F  </i>
   <i type="logical" name="LSCALU"> F  </i>
   <i type="logical" name="LASYNC"> F  </i>
   <i type="logical" name="LORBITALREAL"> F  </i>
  </separator>
  <separator name="miscellaneous" >
   <i type="int" name="IDIOT">     3</i>
   <i type="logical" name="LMUSIC"> F  </i>
   <v name="POMASS">    196.96600000     26.98200000</v>
   <v name="DARWINR">      0.00000000      0.00000000</v>
   <v name="DARWINV">      1.00000000      1.00000000</v>
   <i type="logical" name="LCORR"> T  </i>
  </separator>
  <i type="logical" name="GGA_COMPAT"> T  </i>
  <i type="logical" name="LBERRY"> F  </i>
  <i type="int" name="ICORELEVEL">     0</i>
  <i type="logical" name="LDAU"> F  </i>
  <i type="int" name="I_CONSTRAINED_M">     0</i>
  <separator name="electronic exchange-correlation" >
   <i type="string" name="GGA">--</i>
   <i type="int" name="VOSKOWN">     0</i>
   <i type="logical" name="LHFCALC"> F  </i>
   <i type="string" name="PRECFOCK"></i>
   <i type="logical" name="LSYMGRAD"> F  </i>
   <i type="logical" name="LHFONE"> F  </i>
   <i type="logical" name="LRHFCALC"> F  </i>
   <i type="logical" name="LTHOMAS"> F  </i>
   <i type="logical" name="LMODELHF"> F  </i>
   <i name="ENCUT4O">     -1.00000000</i>
   <i type="int" name="EXXOEP">     0</i>
   <i type="int" name="FOURORBIT">     0</i>
   <i name="AEXX">      0.00000000</i>
   <i name="HFALPHA">      0.00000000</i>
   <i name="MCALPHA">      0.00000000</i>
   <i name="ALDAX">      1.00000000</i>
   <i name="AGGAX">      1.00000000</i>
   <i name="ALDAC">      1.00000000</i>
   <i name="AGGAC">      1.00000000</i>
   <i type="int" name="NKREDX">     1</i>
   <i type="int" name="NKREDY">     1</i>
   <i type="int" name="NKREDZ">     1</i>
   <i type="logical" name="SHIFTRED"> F  </i>
   <i type="logical" name="ODDONLY"> F  </i>
   <i type="logical" name="EVENONLY"> F  </i>
   <i type="int" name="LMAXFOCK">     0</i>
   <i type="int" name="NMAXFOCKAE">     0</i>
   <i type="logical" name="LFOCKAEDFT"> F  </i>
   <i name="HFSCREEN">      0.00000000</i>
   <i name="HFSCREENC">      0.00000000</i>
   <i type="int" name="NBANDSGWLOW">     0</i>
  </separator>
  <separator name="vdW DFT" >
   <i type="logical" name="LUSE_VDW"> F  </i>
   <i name="Zab_VDW">     -0.84910000</i>
   <i name="PARAM1">      0.12340000</i>
   <i name="PARAM2">      1.00000000</i>
   <i name="PARAM3">      0.00000000</i>
  </separator>
  <separator name="model GW" >
   <i type="int" name="MODEL_GW">     0</i>
   <i name="MODEL_EPS0">     13.73125000</i>
   <i name="MODEL_ALPHA">      1.00000000</i>
  </separator>
  <separator name="linear response parameters" >
   <i type="logical" name="LEPSILON"> F  </i>
   <i type="logical" name="LRPA"> F  </i>
   <i type="logical" name="LNABLA"> F  </i>
   <i type="logical" name="LVEL"> F  </i>
   <i type="int" name="KINTER">     0</i>
   <i name="CSHIFT">      0.10000000</i>
   <i name="OMEGAMAX">     -1.00000000</i>
   <i name="DEG_THRESHOLD">      0.00200000</i>
  </separator>
  <separator name="orbital magnetization" >
   <i type="logical" name="NUCIND"> F  </i>
   <v name="MAGPOS">      0.00000000      0.00000000      0.00000000</v>
   <i type="logical" name="LNICSALL"> T  </i>
   <i type="logical" name="ORBITALMAG"> F  </i>
   <i type="logical" name="LMAGBLOCH"> F  </i>
   <i type="logical" name="LCHIMAG"> F  </i>
   <i type="logical" name="LGAUGE"> T  </i>
   <i type="int" name="MAGATOM">     0</i>
   <v name="MAGDIPOL">      0.00000000      0.00000000      0.00000000</v>
   <v name="AVECCONST">      0.00000000      0.00000000      0.00000000</v>
  </separator>
  <separator name="response functions" >
   <i type="logical" name="LADDER"> F  </i>
   <i type="logical" name="LFXC"> F  </i>
   <i type="logical" name="LHARTREE"> T  </i>
   <i type="int" name="IBSE">     0</i>
   <i type="logical" name="LTCTE"> F  </i>
   <i type="logical" name="LTETE"> F  </i>
   <i type="logical" name="LTRIPLET"> F  </i>
   <i type="logical" name="LFXCEPS"> F  </i>
   <i type="logical" name="LFXHEG"> F  </i>
   <i type="logical" name="L2ORDER"> F  </i>
   <i type="logical" name="LUSEW"> F  </i>
   <i name="ENCUTGW">     -2.00000000</i>
   <i name="ENCUTGWSOFT">     -2.00000000</i>
   <i name="ENCUTLF">     -1.00000000</i>
   <i type="int" name="LMAXMP2">    -1</i>
   <i name="SCISSOR">      0.00000000</i>
   <i type="int" name="NOMEGA">     0</i>
   <i type="int" name="NOMEGAR">     0</i>
   <i type="int" name="NBANDSGW">    -1</i>
   <i type="int" name="NBANDSO">    -1</i>
   <i type="int" name="NBANDSV">    -1</i>
   <i type="int" name="NELM">     1</i>
   <i type="int" name="DIM">     3</i>
   <i type="int" name="ANTIRES">     0</i>
   <i name="OMEGAMAX">    -30.00000000</i>
   <i name="OMEGAMIN">    -30.00000000</i>
   <i name="OMEGATL">   -200.00000000</i>
   <i type="int" name="OMEGAGRID">     0</i>
   <i name="CSHIFT">     -0.10000000</i>
   <i type="logical" name="SELFENERGY"> F  </i>
   <i type="logical" name="LSPECTRAL"> F  </i>
   <i type="logical" name="ODDONLYGW"> F  </i>
   <i type="logical" name="EVENONLYGW"> F  </i>
   <i type="int" name="NKREDLFX">     1</i>
   <i type="int" name="NKREDLFY">     1</i>
   <i type="int" name="NKREDLFZ">     1</i>
   <i type="int" name="MAXMEM">  1800</i>
   <i type="int" name="TELESCOPE">     0</i>
   <i type="int" name="TAUPAR">     1</i>
  </separator>
  <separator name="External order field" >
   <i name="OFIELD_KAPPA">      0.00000000</i>
   <v name="OFIELD_K">      0.00000000      0.00000000      0.00000000</v>
   <i name="OFIELD_Q6_NEAR">      0.00000000</i>
   <i name="OFIELD_Q6_FAR">      0.00000000</i>
   <i name="OFIELD_A">      0.00000000</i>
  </separator>
 </parameters>
 <atominfo>
  <atoms>       3 </atoms>
  <types>       2 </types>
  <array name="atoms" >
   <dimension dim="1">ion</dimension>
   <field type="string">element</field>
   <field type="int">atomtype</field>
   <set>
    <rc><c>Au</c><c>   1</c></rc>
    <rc><c>Al</c><c>   2</c></rc>
    <rc><c>Al</c><c>   2</c></rc>
   </set>
  </array>
  <array name="atomtypes" >
   <dimension dim="1">type</dimension>
   <field type="int">atomspertype</field>
   <field type="string">element</field>
   <field>mass</field>
   <field>valence</field>
   <field type="string">pseudopotential</field>
   <set>
    <rc><c>   1</c><c>Au</c><c>    196.96600000</c><c>     11.00000000</c><c> PAW Au 04Feb1998                       </c></rc>
    <rc><c>   2</c><c>Al</c><c>     26.98200000</c><c>      3.00000000</c><c> PAW Al 17Apr2000                       </c></rc>
   </set>
  </array>
 </atominfo>
 <structure name="initialpos" >
  <crystal>
   <varray name="basis" >
    <v>       0.00000000       3.25000000       3.25000000 </v>
    <v>       3.25000000       0.00000000       3.25000000 </v>
    <v>       3.25000000       3.25000000       0.00000000 </v>
   </varray>
   <i name="volume">     68.65625000 </i>
   <varray name="rec_basis" >
    <v>      -0.15384615       0.15384615       0.15384615 </v>
    <v>       0.15384615      -0.15384615       0.15384615 </v>
    <v>       0.15384615       0.15384615      -0.15384615 </v>
   </varray>
  </crystal>
  <varray name="positions" >
   <v>       0.00000000       0.00000000       0.00000000 </v>
   <v>       0.25000000       0.25000000       0.25000000 </v>
   <v>       0.75000000       0.75000000       0.75000000 </v>
  </varray>
 </structure>
 <calculation>
  <scstep>
   <time name="dav">    1.60    1.62</time>
   <time name="total">    1.63    1.66</time>
   <energy>
    <i name="alphaZ">     40.80783850 </i>
    <i name="ewald">   -844.89818274 </i>
    <i name="hartreedc">   -301.79684970 </i>
    <i name="XCdc">    -35.65468134 </i>
    <i name="pawpsdc">    816.04175667 </i>
    <i name="pawaedc">   -733.29636931 </i>
    <i name="eentropy">      0.00080150 </i>
    <i name="bandstr">     66.05745255 </i>
    <i name="atom">   1037.00701138 </i>
    <i name="e_fr_energy">     44.26877750 </i>
    <i name="e_wo_entrp">     44.26797600 </i>
    <i name="e_0_energy">     44.26851034 </i>
   </energy>
  </scstep>
  <scstep>
   <time name="dav">    1.83    1.85</time>
   <time name="total">    1.83    1.86</time>
   <energy>
    <i name="e_fr_energy">    -12.66502609 </i>
    <i name="e_wo_entrp">    -12.66432039 </i>
    <i name="e_0_energy">    -12.66479086 </i>
   </energy>
  </scstep>
  <scstep>
   <time name="dav">    2.29    2.31</time>
   <time name="total">    2.30    2.34</time>
   <energy>
    <i name="e_fr_energy">    -14.17892566 </i>
    <i name="e_wo_entrp">    -14.17790584 </i>
    <i name="e_0_energy">    -14.17858572 </i>
   </energy>
  </scstep>
  <scstep>
   <time name="dav">    2.53    2.56</time>
   <time name="total">    2.54    2.57</time>
   <energy>
    <i name="e_fr_energy">    -14.18495775 </i>
    <i name="e_wo_entrp">    -14.18389231 </i>
    <i name="e_0_energy">    -14.18460260 </i>
   </energy>
  </scstep>
  <scstep>
   <time name="dav">    2.48    2.51</time>
   <time name="total">    2.64    2.67</time>
   <energy>
    <i name="e_fr_energy">    -14.18496290 </i>
    <i name="e_wo_entrp">    -14.18389747 </i>
    <i name="e_0_energy">    -14.18460775 </i>
   </energy>
  </scstep>
  <scstep>
   <time name="dav">    1.68    1.69</time>
   <time name="total">    1.84    1.87</time>
   <energy>
    <i name="e_fr_energy">    -13.36345656 </i>
    <i name="e_wo_entrp">    -13.36527533 </i>
    <i name="e_0_energy">    -13.36406281 </i>
   </energy>
  </scstep>
  <scstep>
   <time name="dav">    1.77    1.78</time>
   <time name="total">    1.96    1.98</time>
   <energy>
    <i name="e_fr_energy">    -13.25888608 </i>
    <i name="e_wo_entrp">    -13.26064590 </i>
    <i name="e_0_energy">    -13.25947269 </i>
   </energy>
  </scstep>
  <scstep>
   <time name="dav">    1.92    1.94</time>
   <time name="total">    2.11    2.14</time>
   <energy>
    <i name="e_fr_energy">    -13.22859291 </i>
    <i name="e_wo_entrp">    -13.23012075 </i>
    <i name="e_0_energy">    -13.22910219 </i>
   </energy>
  </scstep>
  <scstep>
   <time name="dav">    1.93    1.95</time>
   <time name="total">    2.12    2.15</time>
   <energy>
    <i name="e_fr_energy">    -13.22644453 </i>
    <i name="e_wo_entrp">    -13.22796760 </i>
    <i name="e_0_energy">    -13.22695222 </i>
   </energy>
  </scstep>
  <scstep>
   <time name="dav">    1.92    1.94</time>
   <time name="total">    2.11    2.13</time>
   <energy>
    <i name="e_fr_energy">    -13.22640686 </i>
    <i name="e_wo_entrp">    -13.22793508 </i>
    <i name="e_0_energy">    -13.22691626 </i>
   </energy>
  </scstep>
  <scstep>
   <time name="dav">    2.38    2.40</time>
   <time name="total">    2.57    2.60</time>
   <energy>
    <i name="e_fr_energy">    -13.22640258 </i>
    <i name="e_wo_entrp">    -13.22792974 </i>
    <i name="e_0_energy">    -13.22691164 </i>
   </energy>
  </scstep>
  <scstep>
   <time name="dav">    2.34    2.36</time>
   <time name="total">    2.53    2.56</time>
   <energy>
    <i name="e_fr_energy">    -13.22639877 </i>
    <i name="e_wo_entrp">    -13.22792553 </i>
    <i name="e_0_energy">    -13.22690769 </i>
   </energy>
  </scstep>
  <scstep>
   <time name="dav">    1.27    1.28</time>
   <time name="total">    1.29    1.30</time>
   <energy>
    <i name="alphaZ">     40.80783850 </i>
    <i name="ewald">   -844.89818274 </i>
    <i name="hartreedc">   -283.63560255 </i>
    <i name="XCdc">    -36.20600575 </i>
    <i name="pawpsdc">    818.55482457 </i>
    <i name="pawaedc">   -740.08202406 </i>
    <i name="eentropy">      0.00152695 </i>
    <i name="bandstr">     -4.77578504 </i>
    <i name="atom">   1037.00701138 </i>
    <i name="e_fr_energy">    -13.22639876 </i>
    <i name="e_wo_entrp">    -13.22792571 </i>
    <i name="e_0_energy">    -13.22690775 </i>
   </energy>
  </scstep>
  <structure>
   <crystal>
    <varray name="basis" >
     <v>       0.00000000       3.25000000       3.25000000 </v>
     <v>       3.25000000       0.00000000       3.25000000 </v>
     <v>       3.25000000       3.25000000       0.00000000 </v>
    </varray>
    <i name="volume">     68.65625000 </i>
    <varray name="rec_basis" >
     <v>      -0.15384615       0.15384615       0.15384615 </v>
     <v>       0.15384615      -0.15384615       0.15384615 </v>
     <v>       0.15384615       0.15384615      -0.15384615 </v>
    </varray>
   </crystal>
   <varray name="positions" >
    <v>       0.00000000       0.00000000       0.00000000 </v>
    <v>       0.25000000       0.25000000       0.25000000 </v>
    <v>       0.75000000       0.75000000       0.75000000 </v>
   </varray>
  </structure>
  <varray name="forces" >
   <v>       0.00000000      -0.00000000      -0.00000000 </v>
   <v>      -0.00000000      -0.00000000       0.00000000 </v>
   <v>       0.00000000       0.00000000       0.00000000 </v>
  </varray>
  <varray name="stress" >
   <v>    -162.65940677       0.00000000       0.00000000 </v>
   <v>      -0.00000000    -162.65940677       0.00000000 </v>
   <v>       0.00000000       0.00000000    -162.65940677 </v>
  </varray>
  <energy>
   <i name="e_fr_energy">    -13.22639876 </i>
   <i name="e_wo_entrp">    -13.22690775 </i>
   <i name="e_0_energy">      0.00152695 </i>
  </energy>
  <time name="totalsc">   29.49   29.88</time>
 </calculation>
 <calculation>
  <scstep>
   <time name="dav">    1.89    1.91</time>
   <time name="total">    2.18    2.21</time>
   <energy>
    <i name="alphaZ">     58.29531125 </i>
    <i name="ewald">   -951.55607711 </i>
    <i name="hartreedc">   -319.44028343 </i>
    <i name="XCdc">    -31.26888782 </i>
    <i name="pawpsdc">    818.54498414 </i>
    <i name="pawaedc">   -740.07269312 </i>
    <i name="eentropy">      0.00116839 </i>
    <i name="bandstr">     87.44190154 </i>
    <i name="atom">   1037.00701138 </i>
    <i name="e_fr_energy">    -41.04756479 </i>
    <i name="e_wo_entrp">    -41.04873317 </i>
    <i name="e_0_energy">    -41.04795425 </i>
   </energy>
  </scstep>
  <scstep>
   <time name="dav">    1.62    1.64</time>
   <time name="total">    1.81    1.83</time>
   <energy>
    <i name="e_fr_energy">    -16.58987302 </i>
    <i name="e_wo_entrp">    -16.59076099 </i>
    <i name="e_0_energy">    -16.59016901 </i>
   </energy>
  </scstep>
  <scstep>
   <time name="dav">    1.71    1.73</time>
   <time name="total">    1.88    1.90</time>
   <energy>
    <i name="e_fr_energy">    -14.38969035 </i>
    <i name="e_wo_entrp">    -14.38903627 </i>
    <i name="e_0_energy">    -14.38947233 </i>
   </energy>
  </scstep>
  <scstep>
   <time name="dav">    2.40    2.42</time>
   <time name="total">    2.58    2.60</time>
   <energy>
    <i name="e_fr_energy">    -14.19711055 </i>
    <i name="e_wo_entrp">    -14.19519098 </i>
    <i name="e_0_energy">    -14.19647070 </i>
   </energy>
  </scstep>
  <scstep>
   <time name="dav">    1.97    2.00</time>
   <time name="total">    2.14    2.18</time>
   <energy>
    <i name="e_fr_energy">    -14.07715396 </i>
    <i name="e_wo_entrp">    -14.07547652 </i>
    <i name="e_0_energy">    -14.07659482 </i>
   </energy>
  </scstep>
  <scstep>
   <time name="dav">    1.87    1.89</time>
   <time name="total">    2.03    2.06</time>
   <energy>
    <i name="e_fr_energy">    -14.08206502 </i>
    <i name="e_wo_entrp">    -14.08040243 </i>
    <i name="e_0_energy">    -14.08151082 </i>
   </energy>
  </scstep>
  <scstep>
   <time name="dav">    2.41    2.43</time>
   <time name="total">    2.58    2.61</time>
   <energy>
    <i name="e_fr_energy">    -14.08251202 </i>
    <i name="e_wo_entrp">    -14.08083083 </i>
    <i name="e_0_energy">    -14.08195162 </i>
   </energy>
  </scstep>
  <scstep>
   <time name="dav">    2.19    2.21</time>
   <time name="total">    2.36    2.39</time>
   <energy>
    <i name="e_fr_energy">    -14.08251547 </i>
    <i name="e_wo_entrp">    -14.08083318 </i>
    <i name="e_0_energy">    -14.08195471 </i>
   </energy>
  </scstep>
  <scstep>
   <time name="dav">    2.26    2.28</time>
   <time name="total">    2.43    2.45</time>
   <energy>
    <i name="e_fr_energy">    -14.08250805 </i>
    <i name="e_wo_entrp">    -14.08082276 </i>
    <i name="e_0_energy">    -14.08194629 </i>
   </energy>
  </scstep>
  <scstep>
   <time name="dav">    1.18    1.19</time>
   <time name="total">    1.20    1.21</time>
   <energy>
    <i name="alphaZ">     58.29531125 </i>
    <i name="ewald">   -951.55607711 </i>
    <i name="hartreedc">   -231.51304365 </i>
    <i name="XCdc">    -34.15701620 </i>
    <i name="pawpsdc">    881.87082617 </i>
    <i name="pawaedc">   -806.06603194 </i>
    <i name="eentropy">     -0.00168516 </i>
    <i name="bandstr">     32.03819711 </i>
    <i name="atom">   1037.00701138 </i>
    <i name="e_fr_energy">    -14.08250814 </i>
    <i name="e_wo_entrp">    -14.08082298 </i>
    <i name="e_0_energy">    -14.08194642 </i>
   </energy>
  </scstep>
  <structure>
   <crystal>
    <varray name="basis" >
     <v>      -0.00000000       2.88571442       2.88571442 </v>
     <v>       2.88571442       0.00000000       2.88571442 </v>
     <v>       2.88571442       2.88571442       0.00000000 </v>
    </varray>
    <i name="volume">     48.06069480 </i>
    <varray name="rec_basis" >
     <v>      -0.17326732       0.17326732       0.17326732 </v>
     <v>       0.17326732      -0.17326732       0.17326732 </v>
     <v>       0.17326732       0.17326732      -0.17326732 </v>
    </varray>
   </crystal>
   <varray name="positions" >
    <v>      -0.00000000       0.00000000       0.00000000 </v>
    <v>       0.25000000       0.25000000       0.25000000 </v>
    <v>       0.75000000       0.75000000       0.75000000 </v>
   </varray>
  </structure>
  <varray name="forces" >
   <v>      -0.00000000       0.00000000      -0.00000000 </v>
   <v>       0.00000000       0.00000000       0.00000000 </v>
   <v>      -0.00000000      -0.00000000       0.00000000 </v>
  </varray>
  <varray name="stress" >
   <v>     147.91321652       0.00000000       0.00000000 </v>
   <v>      -0.00000000     147.91321652      -0.00000000 </v>
   <v>      -0.00000000       0.00000000     147.91321652 </v>
  </varray>
  <energy>
   <i name="e_fr_energy">    -14.08250814 </i>
   <i name="e_wo_entrp">    -14.08194642 </i>
   <i name="e_0_energy">     -0.00168516 </i>
  </energy>
  <time name="totalsc">   22.96   23.25</time>
 </calculation>
 <calculation>
  <scstep>
   <time name="dav">    1.56    1.57</time>
   <time name="total">    1.73    1.75</time>
   <energy>
    <i name="alphaZ">     52.91977773 </i>
    <i name="ewald">   -921.35963664 </i>
    <i name="hartreedc">   -224.16586079 </i>
    <i name="XCdc">    -35.40635702 </i>
    <i name="pawpsdc">    881.86934586 </i>
    <i name="pawaedc">   -806.06505311 </i>
    <i name="eentropy">     -0.00134077 </i>
    <i name="bandstr">     -0.65853095 </i>
    <i name="atom">   1037.00701138 </i>
    <i name="e_fr_energy">    -15.86064430 </i>
    <i name="e_wo_entrp">    -15.85930353 </i>
    <i name="e_0_energy">    -15.86019738 </i>
   </energy>
  </scstep>
  <scstep>
   <time name="dav">    1.61    1.63</time>
   <time name="total">    1.81    1.84</time>
   <energy>
    <i name="e_fr_energy">    -14.32666911 </i>
    <i name="e_wo_entrp">    -14.32453261 </i>
    <i name="e_0_energy">    -14.32595694 </i>
   </energy>
  </scstep>
  <scstep>
   <time name="dav">    1.75    1.77</time>
   <time name="total">    1.96    1.98</time>
   <energy>
    <i name="e_fr_energy">    -14.30189842 </i>
    <i name="e_wo_entrp">    -14.29985475 </i>
    <i name="e_0_energy">    -14.30121720 </i>
   </energy>
  </scstep>
  <scstep>
   <time name="dav">    1.80    1.82</time>
   <time name="total">    2.00    2.03</time>
   <energy>
    <i name="e_fr_energy">    -14.28745808 </i>
    <i name="e_wo_entrp">    -14.28556060 </i>
    <i name="e_0_energy">    -14.28682558 </i>
   </energy>
  </scstep>
  <scstep>
   <time name="dav">    2.22    2.24</time>
   <time name="total">    2.43    2.45</time>
   <energy>
    <i name="e_fr_energy">    -14.28723948 </i>
    <i name="e_wo_entrp">    -14.28530329 </i>
    <i name="e_0_energy">    -14.28659408 </i>
   </energy>
  </scstep>
  <scstep>
   <time name="dav">    1.85    1.87</time>
   <time name="total">    2.05    2.08</time>
   <energy>
    <i name="e_fr_energy">    -14.28710798 </i>
    <i name="e_wo_entrp">    -14.28519315 </i>
    <i name="e_0_energy">    -14.28646970 </i>
   </energy>
  </scstep>
  <scstep>
   <time name="dav">    2.46    2.48</time>
   <time name="total">    2.66    2.69</time>
   <energy>
    <i name="e_fr_energy">    -14.28711117 </i>
    <i name="e_wo_entrp">    -14.28519654 </i>
    <i name="e_0_energy">    -14.28647296 </i>
   </energy>
  </scstep>
  <scstep>
   <time name="dav">    2.24    2.26</time>
   <time name="total">    2.44    2.48</time>
   <energy>
    <i name="e_fr_energy">    -14.28711001 </i>
    <i name="e_wo_entrp">    -14.28519657 </i>
    <i name="e_0_energy">    -14.28647220 </i>
   </energy>
  </scstep>
  <scstep>
   <time name="dav">    1.03    1.04</time>
   <time name="total">    1.04    1.06</time>
   <energy>
    <i name="alphaZ">     52.91977773 </i>
    <i name="ewald">   -921.35963664 </i>
    <i name="hartreedc">   -245.42044825 </i>
    <i name="XCdc">    -34.75487905 </i>
    <i name="pawpsdc">    859.31297648 </i>
    <i name="pawaedc">   -782.68058283 </i>
    <i name="eentropy">     -0.00191353 </i>
    <i name="bandstr">     20.69058472 </i>
    <i name="atom">   1037.00701138 </i>
    <i name="e_fr_energy">    -14.28711000 </i>
    <i name="e_wo_entrp">    -14.28519647 </i>
    <i name="e_0_energy">    -14.28647216 </i>
   </energy>
  </scstep>
  <structure>
   <crystal>
    <varray name="basis" >
     <v>      -0.00000000       2.98029020       2.98029020 </v>
     <v>       2.98029020       0.00000000       2.98029020 </v>
     <v>       2.98029020       2.98029020       0.00000000 </v>
    </varray>
    <i name="volume">     52.94264795 </i>
    <varray name="rec_basis" >
     <v>      -0.16776890       0.16776890       0.16776890 </v>
     <v>       0.16776890      -0.16776890       0.16776890 </v>
     <v>       0.16776890       0.16776890      -0.16776890 </v>
    </varray>
   </crystal>
   <varray name="positions" >
    <v>      -0.00000000       0.00000000       0.00000000 </v>
    <v>       0.25000000       0.25000000       0.25000000 </v>
    <v>       0.75000000       0.75000000       0.75000000 </v>
   </varray>
  </structure>
  <varray name="forces" >
   <v>      -0.00000000      -0.00000000       0.00000000 </v>
   <v>      -0.00000000       0.00000000      -0.00000000 </v>
   <v>       0.00000000      -0.00000000       0.00000000 </v>
  </varray>
  <varray name="stress" >
   <v>      -0.76865512       0.00000000      -0.00000000 </v>
   <v>      -0.00000000      -0.76865512       0.00000000 </v>
   <v>       0.00000000      -0.00000000      -0.76865512 </v>
  </varray>
  <energy>
   <i name="e_fr_energy">    -14.28711000 </i>
   <i name="e_wo_entrp">    -14.28647216 </i>
   <i name="e_0_energy">     -0.00191353 </i>
  </energy>
  <time name="totalsc">   19.93   20.24</time>
  <eigenvalues>
   <array>
    <dimension dim="1">band</dimension>
    <dimension dim="2">kpoint</dimension>
    <dimension dim="3">spin</dimension>
    <field>eigene</field>
    <field>occ</field>
    <set>
     <set comment="spin 1">
      <set comment="kpoint 1">
       <r>   -4.0364    1.0000 </r>
       <r>   -0.1282    1.0000 </r>
       <r>   -0.1082    1.0000 </r>
       <r>   -0.1082    1.0000 </r>
       <r>    0.8698    1.0000 </r>
       <r>    0.8698    1.0000 </r>
       <r>    8.7183   -0.0000 </r>
       <r>    9.1400   -0.0000 </r>
       <r>    9.4174   -0.0000 </r>
       <r>    9.4174   -0.0000 </r>
       <r>   10.7999   -0.0000 </r>
       <r>   10.7999   -0.0000 </r>
      </set>
      <set comment="kpoint 2">
       <r>   -3.8596    1.0000 </r>
       <r>   -0.1868    1.0000 </r>
       <r>   -0.0669    1.0000 </r>
       <r>   -0.0579    1.0000 </r>
       <r>    0.8416    1.0000 </r>
       <r>    0.8813    1.0000 </r>
       <r>    7.3781   -0.0000 </r>
       <r>    8.1342   -0.0000 </r>
       <r>    9.3641   -0.0000 </r>
       <r>    9.3706   -0.0000 </r>
       <r>   10.8088   -0.0000 </r>
       <r>   11.4976   -0.0000 </r>
      </set>
      <set comment="kpoint 3">
       <r>   -3.4326    1.0000 </r>
       <r>   -0.2880    1.0000 </r>
       <r>    0.0209    1.0000 </r>
       <r>    0.0269    1.0000 </r>
       <r>    0.8244    1.0000 </r>
       <r>    0.8969    1.0000 </r>
       <r>    5.2539    1.0000 </r>
       <r>    7.5295   -0.0000 </r>
       <r>    8.5712   -0.0000 </r>
       <r>    9.6080   -0.0000 </r>
       <r>   10.8962   -0.0000 </r>
       <r>   11.0040   -0.0000 </r>
      </set>
      <set comment="kpoint 4">
       <r>   -2.8147    1.0000 </r>
       <r>   -0.3437    1.0000 </r>
       <r>    0.0988    1.0000 </r>
       <r>    0.1018    1.0000 </r>
       <r>    0.8582    1.0000 </r>
       <r>    0.9417    1.0000 </r>
       <r>    3.3397    1.0000 </r>
       <r>    7.0264   -0.0154 </r>
       <r>    7.7714   -0.0000 </r>
       <r>    9.7826   -0.0000 </r>
       <r>   10.5220   -0.0000 </r>
       <r>   10.6599   -0.0000 </r>
      </set>
      <set comment="kpoint 5">
       <r>   -2.1982    1.0000 </r>
       <r>   -0.2016    1.0000 </r>
       <r>    0.1388    1.0000 </r>
       <r>    0.1416    1.0000 </r>
       <r>    0.9398    1.0000 </r>
       <r>    0.9936    1.0000 </r>
       <r>    1.7697    1.0000 </r>
       <r>    6.7381    0.2342 </r>
       <r>    7.1713   -0.0012 </r>
       <r>    9.7724   -0.0000 </r>
       <r>   10.3902   -0.0000 </r>
       <r>   10.5576   -0.0000 </r>
      </set>
      <set comment="kpoint 6">
       <r>   -1.9919    1.0000 </r>
       <r>   -0.0190    1.0000 </r>
       <r>    0.1441    1.0000 </r>
       <r>    0.1947    1.0000 </r>
       <r>    0.9957    1.0000 </r>
       <r>    1.0131    1.0000 </r>
       <r>    1.1053    1.0000 </r>
       <r>    6.7690    0.1363 </r>
       <r>    6.8940   -0.0332 </r>
       <r>    9.6817   -0.0000 </r>
       <r>   10.5048   -0.0000 </r>
       <r>   10.6121   -0.0000 </r>
      </set>
      <set comment="kpoint 7">
       <r>   -2.3806    1.0000 </r>
       <r>   -0.2841    1.0000 </r>
       <r>    0.1293    1.0000 </r>
       <r>    0.1315    1.0000 </r>
       <r>    0.9153    1.0000 </r>
       <r>    0.9782    1.0000 </r>
       <r>    2.2381    1.0000 </r>
       <r>    6.9830   -0.0250 </r>
       <r>    7.1417   -0.0022 </r>
       <r>    9.6527   -0.0000 </r>
       <r>   10.5575   -0.0000 </r>
       <r>   10.8299   -0.0000 </r>
      </set>
      <set comment="kpoint 8">
       <r>   -3.0341    1.0000 </r>
       <r>   -0.3401    1.0000 </r>
       <r>    0.0796    1.0000 </r>
       <r>    0.0809    1.0000 </r>
       <r>    0.8369    1.0000 </r>
       <r>    0.9256    1.0000 </r>
       <r>    3.9454    1.0000 </r>
       <r>    7.3824   -0.0000 </r>
       <r>    7.7641   -0.0000 </r>
       <r>    9.6378   -0.0000 </r>
       <r>   10.6157   -0.0000 </r>
       <r>   11.2245   -0.0000 </r>
      </set>
      <set comment="kpoint 9">
       <r>   -3.6002    1.0000 </r>
       <r>   -0.2567    1.0000 </r>
       <r>   -0.0066    1.0000 </r>
       <r>   -0.0026    1.0000 </r>
       <r>    0.8198    1.0000 </r>
       <r>    0.8945    1.0000 </r>
       <r>    5.9449    1.0000 </r>
       <r>    7.9869   -0.0000 </r>
       <r>    8.4413   -0.0000 </r>
       <r>    9.5501   -0.0000 </r>
       <r>   10.8658   -0.0000 </r>
       <r>   11.5381   -0.0000 </r>
      </set>
      <set comment="kpoint 10">
       <r>   -3.9475    1.0000 </r>
       <r>   -0.1634    1.0000 </r>
       <r>   -0.0828    1.0000 </r>
       <r>   -0.0812    1.0000 </r>
       <r>    0.8446    1.0000 </r>
       <r>    0.8849    1.0000 </r>
       <r>    8.0965   -0.0000 </r>
       <r>    8.7063   -0.0000 </r>
       <r>    8.8814   -0.0000 </r>
       <r>    9.3564   -0.0000 </r>
       <r>   10.8412   -0.0000 </r>
       <r>   11.6652   -0.0000 </r>
      </set>
      <set comment="kpoint 11">
       <r>   -3.7704    1.0000 </r>
       <r>   -0.2327    1.0000 </r>
       <r>   -0.0289    1.0000 </r>
       <r>   -0.0276    1.0000 </r>
       <r>    0.7957    1.0000 </r>
       <r>    0.9136    1.0000 </r>
       <r>    7.3764   -0.0000 </r>
       <r>    7.9424   -0.0000 </r>
       <r>    8.3790   -0.0000 </r>
       <r>    8.9240   -0.0000 </r>
       <r>   10.9199   -0.0000 </r>
       <r>   11.3304   -0.0000 </r>
      </set>
      <set comment="kpoint 12">
       <r>   -3.4239    1.0000 </r>
       <r>   -0.3315    1.0000 </r>
       <r>    0.0552    1.0000 </r>
       <r>    0.0577    1.0000 </r>
       <r>    0.7453    1.0000 </r>
       <r>    0.9474    1.0000 </r>
       <r>    5.9401    1.0000 </r>
       <r>    6.8118    0.0392 </r>
       <r>    8.0398   -0.0000 </r>
       <r>    9.1491   -0.0000 </r>
       <r>   10.5580   -0.0000 </r>
       <r>   11.6283   -0.0000 </r>
      </set>
      <set comment="kpoint 13">
       <r>   -2.8582    1.0000 </r>
       <r>   -0.4181    1.0000 </r>
       <r>    0.1330    1.0000 </r>
       <r>    0.1511    1.0000 </r>
       <r>    0.7588    1.0000 </r>
       <r>    0.9879    1.0000 </r>
       <r>    3.9934    1.0000 </r>
       <r>    6.3010    1.0125 </r>
       <r>    7.3023   -0.0000 </r>
       <r>    9.3360   -0.0000 </r>
       <r>   11.1051   -0.0000 </r>
       <r>   11.5702   -0.0000 </r>
      </set>
      <set comment="kpoint 14">
       <r>   -2.2022    1.0000 </r>
       <r>   -0.3899    1.0000 </r>
       <r>    0.1736    1.0000 </r>
       <r>    0.2068    1.0000 </r>
       <r>    0.8793    1.0000 </r>
       <r>    1.0174    1.0000 </r>
       <r>    2.3216    1.0000 </r>
       <r>    5.9741    1.0000 </r>
       <r>    6.6765    0.4781 </r>
       <r>    9.2979   -0.0000 </r>
       <r>   10.8951   -0.0000 </r>
       <r>   11.7301   -0.0000 </r>
      </set>
      <set comment="kpoint 15">
       <r>   -1.8140    1.0000 </r>
       <r>   -0.2069    1.0000 </r>
       <r>    0.2231    1.0000 </r>
       <r>    0.2600    1.0000 </r>
       <r>    0.9619    1.0000 </r>
       <r>    1.0419    1.0000 </r>
       <r>    1.2659    1.0000 </r>
       <r>    5.7492    1.0000 </r>
       <r>    6.4864    1.0155 </r>
       <r>    9.3365   -0.0000 </r>
       <r>   10.6373   -0.0000 </r>
       <r>   11.6650   -0.0000 </r>
      </set>
      <set comment="kpoint 16">
       <r>   -2.0227    1.0000 </r>
       <r>   -0.3206    1.0000 </r>
       <r>    0.1910    1.0000 </r>
       <r>    0.2162    1.0000 </r>
       <r>    0.9011    1.0000 </r>
       <r>    1.0029    1.0000 </r>
       <r>    1.9074    1.0000 </r>
       <r>    5.6465    1.0000 </r>
       <r>    6.8371    0.0030 </r>
       <r>    9.5120   -0.0000 </r>
       <r>   10.5175   -0.0000 </r>
       <r>   11.4271   -0.0000 </r>
      </set>
      <set comment="kpoint 17">
       <r>   -2.6425    1.0000 </r>
       <r>   -0.4127    1.0000 </r>
       <r>    0.1360    1.0000 </r>
       <r>    0.1698    1.0000 </r>
       <r>    0.7908    1.0000 </r>
       <r>    0.9958    1.0000 </r>
       <r>    3.4195    1.0000 </r>
       <r>    5.8082    1.0000 </r>
       <r>    7.5350   -0.0000 </r>
       <r>    9.7947   -0.0000 </r>
       <r>   10.5272   -0.0000 </r>
       <r>   11.2843   -0.0000 </r>
      </set>
      <set comment="kpoint 18">
       <r>   -3.2599    1.0000 </r>
       <r>   -0.3486    1.0000 </r>
       <r>    0.0732    1.0000 </r>
       <r>    0.0742    1.0000 </r>
       <r>    0.7643    1.0000 </r>
       <r>    0.9464    1.0000 </r>
       <r>    5.2618    1.0000 </r>
       <r>    6.2324    1.0041 </r>
       <r>    8.3875   -0.0000 </r>
       <r>    9.8260   -0.0000 </r>
       <r>   10.7214   -0.0000 </r>
       <r>   11.2090   -0.0000 </r>
      </set>
      <set comment="kpoint 19">
       <r>   -3.6845    1.0000 </r>
       <r>   -0.2458    1.0000 </r>
       <r>   -0.0202    1.0000 </r>
       <r>   -0.0110    1.0000 </r>
       <r>    0.8042    1.0000 </r>
       <r>    0.9059    1.0000 </r>
       <r>    6.6563    0.5636 </r>
       <r>    7.4656   -0.0000 </r>
       <r>    8.8603   -0.0000 </r>
       <r>    9.4459   -0.0000 </r>
       <r>   10.9618   -0.0000 </r>
       <r>   11.1459   -0.0000 </r>
      </set>
      <set comment="kpoint 20">
       <r>   -3.1584    1.0000 </r>
       <r>   -0.4333    1.0000 </r>
       <r>    0.1514    1.0000 </r>
       <r>    0.1529    1.0000 </r>
       <r>    0.6487    1.0000 </r>
       <r>    1.0003    1.0000 </r>
       <r>    5.8203    1.0000 </r>
       <r>    6.5427    0.9385 </r>
       <r>    6.6835    0.4487 </r>
       <r>    8.4207   -0.0000 </r>
       <r>    9.7905   -0.0000 </r>
       <r>   12.8008    0.0000 </r>
      </set>
      <set comment="kpoint 21">
       <r>   -2.6589    1.0000 </r>
       <r>   -0.5345    1.0000 </r>
       <r>    0.2265    1.0000 </r>
       <r>    0.2720    1.0000 </r>
       <r>    0.6301    1.0000 </r>
       <r>    1.0445    1.0000 </r>
       <r>    4.4806    1.0000 </r>
       <r>    5.6044    1.0000 </r>
       <r>    6.2558    1.0062 </r>
       <r>    8.6681   -0.0000 </r>
       <r>    9.7667   -0.0000 </r>
       <r>   12.6756    0.0000 </r>
      </set>
      <set comment="kpoint 22">
       <r>   -2.0057    1.0000 </r>
       <r>   -0.5726    1.0000 </r>
       <r>    0.2004    1.0000 </r>
       <r>    0.3532    1.0000 </r>
       <r>    0.8112    1.0000 </r>
       <r>    1.0582    1.0000 </r>
       <r>    2.8844    1.0000 </r>
       <r>    5.0426    1.0000 </r>
       <r>    5.7830    1.0000 </r>
       <r>    8.8339   -0.0000 </r>
       <r>   10.7140   -0.0000 </r>
       <r>   12.0590   -0.0000 </r>
      </set>
      <set comment="kpoint 23">
       <r>   -1.4845    1.0000 </r>
       <r>   -0.4420    1.0000 </r>
       <r>    0.1866    1.0000 </r>
       <r>    0.3845    1.0000 </r>
       <r>    0.9660    1.0000 </r>
       <r>    1.0528    1.0000 </r>
       <r>    1.7308    1.0000 </r>
       <r>    4.5128    1.0000 </r>
       <r>    5.7441    1.0000 </r>
       <r>    8.9309   -0.0000 </r>
       <r>   11.5731   -0.0000 </r>
       <r>   12.0304   -0.0000 </r>
      </set>
      <set comment="kpoint 24">
       <r>   -1.5136    1.0000 </r>
       <r>   -0.3983    1.0000 </r>
       <r>    0.2461    1.0000 </r>
       <r>    0.3788    1.0000 </r>
       <r>    0.8204    1.0000 </r>
       <r>    0.9194    1.0000 </r>
       <r>    2.0048    1.0000 </r>
       <r>    4.1410    1.0000 </r>
       <r>    6.1414    1.0006 </r>
       <r>    9.1472   -0.0000 </r>
       <r>   11.2437   -0.0000 </r>
       <r>   12.4390    0.0000 </r>
      </set>
      <set comment="kpoint 25">
       <r>   -2.0553    1.0000 </r>
       <r>   -0.4839    1.0000 </r>
       <r>    0.1780    1.0000 </r>
       <r>    0.3171    1.0000 </r>
       <r>    0.7729    1.0000 </r>
       <r>    0.9960    1.0000 </r>
       <r>    3.1076    1.0000 </r>
       <r>    4.1510    1.0000 </r>
       <r>    6.8301    0.0116 </r>
       <r>    9.5361   -0.0000 </r>
       <r>   10.9455   -0.0000 </r>
       <r>   12.1553    0.0000 </r>
      </set>
      <set comment="kpoint 26">
       <r>   -2.6994    1.0000 </r>
       <r>   -0.4380    1.0000 </r>
       <r>    0.1375    1.0000 </r>
       <r>    0.1905    1.0000 </r>
       <r>    0.7482    1.0000 </r>
       <r>    1.0014    1.0000 </r>
       <r>    4.0352    1.0000 </r>
       <r>    5.1248    1.0000 </r>
       <r>    7.6283   -0.0000 </r>
       <r>   10.0336   -0.0000 </r>
       <r>   10.4486   -0.0000 </r>
       <r>   11.6055   -0.0000 </r>
      </set>
      <set comment="kpoint 27">
       <r>   -3.1840    1.0000 </r>
       <r>   -0.3443    1.0000 </r>
       <r>    0.0730    1.0000 </r>
       <r>    0.0751    1.0000 </r>
       <r>    0.7932    1.0000 </r>
       <r>    0.9372    1.0000 </r>
       <r>    4.6029    1.0000 </r>
       <r>    6.9095   -0.0353 </r>
       <r>    8.0994   -0.0000 </r>
       <r>    9.6871   -0.0000 </r>
       <r>   10.7745   -0.0000 </r>
       <r>   11.1426   -0.0000 </r>
      </set>
      <set comment="kpoint 28">
       <r>   -2.2303    1.0000 </r>
       <r>   -0.6432    1.0000 </r>
       <r>    0.3530    1.0000 </r>
       <r>    0.4031    1.0000 </r>
       <r>    0.5311    1.0000 </r>
       <r>    1.0962    1.0000 </r>
       <r>    3.9647    1.0000 </r>
       <r>    5.3377    1.0000 </r>
       <r>    5.4186    1.0000 </r>
       <r>    8.1766   -0.0000 </r>
       <r>    9.1584   -0.0000 </r>
       <r>   13.9316    0.0000 </r>
      </set>
      <set comment="kpoint 29">
       <r>   -1.6211    1.0000 </r>
       <r>   -0.7090    1.0000 </r>
       <r>    0.2478    1.0000 </r>
       <r>    0.5252    1.0000 </r>
       <r>    0.7261    1.0000 </r>
       <r>    1.1137    1.0000 </r>
       <r>    2.8899    1.0000 </r>
       <r>    4.6239    1.0000 </r>
       <r>    5.0572    1.0000 </r>
       <r>    8.4180   -0.0000 </r>
       <r>    9.3286   -0.0000 </r>
       <r>   13.3762    0.0000 </r>
      </set>
      <set comment="kpoint 30">
       <r>   -1.0468    1.0000 </r>
       <r>   -0.6245    1.0000 </r>
       <r>    0.0810    1.0000 </r>
       <r>    0.5716    1.0000 </r>
       <r>    1.0162    1.0000 </r>
       <r>    1.0783    1.0000 </r>
       <r>    1.9506    1.0000 </r>
       <r>    3.8082    1.0000 </r>
       <r>    5.0417    1.0000 </r>
       <r>    8.6147   -0.0000 </r>
       <r>   10.4028   -0.0000 </r>
       <r>   12.7367    0.0000 </r>
      </set>
      <set comment="kpoint 31">
       <r>   -1.0158    1.0000 </r>
       <r>   -0.3911    1.0000 </r>
       <r>    0.1146    1.0000 </r>
       <r>    0.5524    1.0000 </r>
       <r>    0.7306    1.0000 </r>
       <r>    0.9881    1.0000 </r>
       <r>    2.2161    1.0000 </r>
       <r>    3.1064    1.0000 </r>
       <r>    5.4268    1.0000 </r>
       <r>    8.8039   -0.0000 </r>
       <r>   11.8464   -0.0000 </r>
       <r>   12.1749    0.0000 </r>
      </set>
      <set comment="kpoint 32">
       <r>   -1.4375    1.0000 </r>
       <r>   -0.4658    1.0000 </r>
       <r>    0.2292    1.0000 </r>
       <r>    0.4415    1.0000 </r>
       <r>    0.7831    1.0000 </r>
       <r>    0.8659    1.0000 </r>
       <r>    2.6115    1.0000 </r>
       <r>    3.3664    1.0000 </r>
       <r>    6.0820    1.0001 </r>
       <r>    9.1143   -0.0000 </r>
       <r>   11.5178   -0.0000 </r>
       <r>   12.6699    0.0000 </r>
      </set>
      <set comment="kpoint 33">
       <r>   -2.0427    1.0000 </r>
       <r>   -0.4296    1.0000 </r>
       <r>    0.1833    1.0000 </r>
       <r>    0.2731    1.0000 </r>
       <r>    0.8271    1.0000 </r>
       <r>    0.9987    1.0000 </r>
       <r>    2.4983    1.0000 </r>
       <r>    4.8656    1.0000 </r>
       <r>    6.8324    0.0087 </r>
       <r>    9.5282   -0.0000 </r>
       <r>   10.7085   -0.0000 </r>
       <r>   11.8226   -0.0000 </r>
      </set>
      <set comment="kpoint 34">
       <r>   -2.5332    1.0000 </r>
       <r>   -0.3608    1.0000 </r>
       <r>    0.1329    1.0000 </r>
       <r>    0.1443    1.0000 </r>
       <r>    0.8556    1.0000 </r>
       <r>    0.9857    1.0000 </r>
       <r>    2.7960    1.0000 </r>
       <r>    6.5171    0.9823 </r>
       <r>    7.3482   -0.0000 </r>
       <r>    9.6196   -0.0000 </r>
       <r>   10.6220   -0.0000 </r>
       <r>   10.9489   -0.0000 </r>
      </set>
      <set comment="kpoint 35">
       <r>   -1.1033    1.0000 </r>
       <r>   -0.7859    1.0000 </r>
       <r>    0.2932    1.0000 </r>
       <r>    0.6358    1.0000 </r>
       <r>    0.7084    1.0000 </r>
       <r>    1.1618    1.0000 </r>
       <r>    2.1872    1.0000 </r>
       <r>    4.5639    1.0000 </r>
       <r>    4.6951    1.0000 </r>
       <r>    8.0646   -0.0000 </r>
       <r>    8.8666   -0.0000 </r>
       <r>   14.2562    0.0000 </r>
      </set>
      <set comment="kpoint 36">
       <r>   -0.8034    1.0000 </r>
       <r>   -0.5866    1.0000 </r>
       <r>    0.0782    1.0000 </r>
       <r>    0.6932    1.0000 </r>
       <r>    1.0336    1.0000 </r>
       <r>    1.1221    1.0000 </r>
       <r>    1.5343    1.0000 </r>
       <r>    4.1222    1.0000 </r>
       <r>    4.5602    1.0000 </r>
       <r>    8.3248   -0.0000 </r>
       <r>    9.1604   -0.0000 </r>
       <r>   13.7694    0.0000 </r>
      </set>
      <set comment="kpoint 37">
       <r>   -0.8377    1.0000 </r>
       <r>   -0.3945    1.0000 </r>
       <r>   -0.0890    1.0000 </r>
       <r>    0.6397    1.0000 </r>
       <r>    0.9649    1.0000 </r>
       <r>    1.1801    1.0000 </r>
       <r>    1.6803    1.0000 </r>
       <r>    3.4856    1.0000 </r>
       <r>    4.9030    1.0000 </r>
       <r>    8.5756   -0.0000 </r>
       <r>   10.3414   -0.0000 </r>
       <r>   12.9397    0.0000 </r>
      </set>
      <set comment="kpoint 38">
       <r>   -1.1850    1.0000 </r>
       <r>   -0.4321    1.0000 </r>
       <r>    0.1533    1.0000 </r>
       <r>    0.4819    1.0000 </r>
       <r>    0.8487    1.0000 </r>
       <r>    1.0386    1.0000 </r>
       <r>    1.8637    1.0000 </r>
       <r>    3.7403    1.0000 </r>
       <r>    5.5294    1.0000 </r>
       <r>    8.8445   -0.0000 </r>
       <r>   11.9102   -0.0000 </r>
       <r>   11.9279   -0.0000 </r>
      </set>
      <set comment="kpoint 39">
       <r>   -1.6457    1.0000 </r>
       <r>   -0.2973    1.0000 </r>
       <r>    0.2680    1.0000 </r>
       <r>    0.2970    1.0000 </r>
       <r>    0.8866    1.0000 </r>
       <r>    0.9927    1.0000 </r>
       <r>    1.5210    1.0000 </r>
       <r>    4.9611    1.0000 </r>
       <r>    6.2683    1.0076 </r>
       <r>    9.2173   -0.0000 </r>
       <r>   10.9111   -0.0000 </r>
       <r>   12.0693   -0.0000 </r>
      </set>
      <set comment="kpoint 40">
       <r>   -2.0034    1.0000 </r>
       <r>   -0.1661    1.0000 </r>
       <r>    0.1689    1.0000 </r>
       <r>    0.1974    1.0000 </r>
       <r>    0.9658    1.0000 </r>
       <r>    1.0062    1.0000 </r>
       <r>    1.4171    1.0000 </r>
       <r>    6.3533    1.0235 </r>
       <r>    6.8459   -0.0064 </r>
       <r>    9.5331   -0.0000 </r>
       <r>   10.4754   -0.0000 </r>
       <r>   11.0441   -0.0000 </r>
      </set>
      <set comment="kpoint 41">
       <r>   -0.8181    1.0000 </r>
       <r>   -0.6517    1.0000 </r>
       <r>    0.2475    1.0000 </r>
       <r>    0.6972    1.0000 </r>
       <r>    0.8017    1.0000 </r>
       <r>    1.1751    1.0000 </r>
       <r>    1.5877    1.0000 </r>
       <r>    4.3975    1.0000 </r>
       <r>    4.5364    1.0000 </r>
       <r>    8.0441   -0.0000 </r>
       <r>    8.8137   -0.0000 </r>
       <r>   14.2803    0.0000 </r>
      </set>
      <set comment="kpoint 42">
       <r>   -1.0608    1.0000 </r>
       <r>   -0.7630    1.0000 </r>
       <r>    0.1810    1.0000 </r>
       <r>    0.6309    1.0000 </r>
       <r>    0.8615    1.0000 </r>
       <r>    1.1242    1.0000 </r>
       <r>    2.1271    1.0000 </r>
       <r>    4.2959    1.0000 </r>
       <r>    4.7266    1.0000 </r>
       <r>    8.3549   -0.0000 </r>
       <r>    9.2150   -0.0000 </r>
       <r>   13.6346    0.0000 </r>
      </set>
      <set comment="kpoint 43">
       <r>   -1.5124    1.0000 </r>
       <r>   -0.6278    1.0000 </r>
       <r>    0.1655    1.0000 </r>
       <r>    0.4671    1.0000 </r>
       <r>    0.9309    1.0000 </r>
       <r>    1.0562    1.0000 </r>
       <r>    2.3836    1.0000 </r>
       <r>    4.3680    1.0000 </r>
       <r>    5.3251    1.0000 </r>
       <r>    8.6977   -0.0000 </r>
       <r>   10.5268   -0.0000 </r>
       <r>   12.4148    0.0000 </r>
      </set>
      <set comment="kpoint 44">
       <r>   -1.8417    1.0000 </r>
       <r>   -0.4218    1.0000 </r>
       <r>    0.1961    1.0000 </r>
       <r>    0.2884    1.0000 </r>
       <r>    0.9586    1.0000 </r>
       <r>    1.0171    1.0000 </r>
       <r>    1.9376    1.0000 </r>
       <r>    5.3020    1.0000 </r>
       <r>    6.1045    1.0002 </r>
       <r>    9.0751   -0.0000 </r>
       <r>   11.2133   -0.0000 </r>
       <r>   12.1424    0.0000 </r>
      </set>
      <set comment="kpoint 45">
       <r>   -1.6740    1.0000 </r>
       <r>   -0.7267    1.0000 </r>
       <r>    0.3425    1.0000 </r>
       <r>    0.5304    1.0000 </r>
       <r>    0.6005    1.0000 </r>
       <r>    1.1349    1.0000 </r>
       <r>    3.0280    1.0000 </r>
       <r>    4.8825    1.0000 </r>
       <r>    4.9967    1.0000 </r>
       <r>    8.1075   -0.0000 </r>
       <r>    8.9780   -0.0000 </r>
       <r>   14.1649    0.0000 </r>
      </set>
      <set comment="kpoint 46">
       <r>   -2.1671    1.0000 </r>
       <r>   -0.6300    1.0000 </r>
       <r>    0.2705    1.0000 </r>
       <r>    0.3995    1.0000 </r>
       <r>    0.6380    1.0000 </r>
       <r>    1.0861    1.0000 </r>
       <r>    3.6969    1.0000 </r>
       <r>    5.0734    1.0000 </r>
       <r>    5.5615    1.0000 </r>
       <r>    8.5197   -0.0000 </r>
       <r>    9.5090   -0.0000 </r>
       <r>   13.0377    0.0000 </r>
      </set>
      <set comment="kpoint 47">
       <r>   -2.4617    1.0000 </r>
       <r>   -0.4981    1.0000 </r>
       <r>    0.1854    1.0000 </r>
       <r>    0.2454    1.0000 </r>
       <r>    0.7541    1.0000 </r>
       <r>    1.0322    1.0000 </r>
       <r>    3.4219    1.0000 </r>
       <r>    5.6956    1.0000 </r>
       <r>    6.4652    1.0280 </r>
       <r>    9.0394   -0.0000 </r>
       <r>   10.9523   -0.0000 </r>
       <r>   11.7324   -0.0000 </r>
      </set>
      <set comment="kpoint 48">
       <r>   -2.7305    1.0000 </r>
       <r>   -0.5424    1.0000 </r>
       <r>    0.2645    1.0000 </r>
       <r>    0.2728    1.0000 </r>
       <r>    0.5705    1.0000 </r>
       <r>    1.0496    1.0000 </r>
       <r>    4.9216    1.0000 </r>
       <r>    5.9310    1.0000 </r>
       <r>    5.9396    1.0000 </r>
       <r>    8.2781   -0.0000 </r>
       <r>    9.4228   -0.0000 </r>
       <r>   13.6478    0.0000 </r>
      </set>
      <set comment="kpoint 49">
       <r>   -3.0805    1.0000 </r>
       <r>   -0.4316    1.0000 </r>
       <r>    0.1421    1.0000 </r>
       <r>    0.1548    1.0000 </r>
       <r>    0.6799    1.0000 </r>
       <r>    0.9960    1.0000 </r>
       <r>    5.2221    1.0000 </r>
       <r>    6.1882    1.0017 </r>
       <r>    7.1141   -0.0038 </r>
       <r>    8.8746   -0.0000 </r>
       <r>   10.1129   -0.0000 </r>
       <r>   12.3277    0.0000 </r>
      </set>
      <set comment="kpoint 50">
       <r>   -3.5065    1.0000 </r>
       <r>   -0.3263    1.0000 </r>
       <r>    0.0505    1.0000 </r>
       <r>    0.0512    1.0000 </r>
       <r>    0.7281    1.0000 </r>
       <r>    0.9534    1.0000 </r>
       <r>    6.6247    0.6914 </r>
       <r>    7.2145   -0.0004 </r>
       <r>    7.5603   -0.0000 </r>
       <r>    8.6202   -0.0000 </r>
       <r>   10.2835   -0.0000 </r>
       <r>   12.0135   -0.0000 </r>
      </set>
      <set comment="kpoint 51">
       <r>   -3.7729    1.0000 </r>
       <r>   -0.2064    1.0000 </r>
       <r>   -0.0455    1.0000 </r>
       <r>   -0.0455    1.0000 </r>
       <r>    0.8601    1.0000 </r>
       <r>    0.8601    1.0000 </r>
       <r>    6.6500    0.5898 </r>
       <r>    8.7137   -0.0000 </r>
       <r>    8.7137   -0.0000 </r>
       <r>    9.2262   -0.0000 </r>
       <r>   11.3916   -0.0000 </r>
       <r>   11.3916   -0.0000 </r>
      </set>
      <set comment="kpoint 52">
       <r>   -3.5138    1.0000 </r>
       <r>   -0.2835    1.0000 </r>
       <r>    0.0112    1.0000 </r>
       <r>    0.0232    1.0000 </r>
       <r>    0.7989    1.0000 </r>
       <r>    0.9117    1.0000 </r>
       <r>    5.9453    1.0000 </r>
       <r>    6.8383    0.0016 </r>
       <r>    9.0033   -0.0000 </r>
       <r>    9.8565   -0.0000 </r>
       <r>   10.7946   -0.0000 </r>
       <r>   10.9239   -0.0000 </r>
      </set>
      <set comment="kpoint 53">
       <r>   -3.0170    1.0000 </r>
       <r>   -0.3844    1.0000 </r>
       <r>    0.1011    1.0000 </r>
       <r>    0.1176    1.0000 </r>
       <r>    0.7635    1.0000 </r>
       <r>    0.9666    1.0000 </r>
       <r>    4.6239    1.0000 </r>
       <r>    5.6618    1.0000 </r>
       <r>    8.2790   -0.0000 </r>
       <r>   10.1766   -0.0000 </r>
       <r>   10.5569   -0.0000 </r>
       <r>   10.9117   -0.0000 </r>
      </set>
      <set comment="kpoint 54">
       <r>   -2.3666    1.0000 </r>
       <r>   -0.4157    1.0000 </r>
       <r>    0.1549    1.0000 </r>
       <r>    0.2095    1.0000 </r>
       <r>    0.8040    1.0000 </r>
       <r>    1.0092    1.0000 </r>
       <r>    2.9157    1.0000 </r>
       <r>    5.3228    1.0000 </r>
       <r>    7.3889   -0.0000 </r>
       <r>    9.6130   -0.0000 </r>
       <r>   10.9441   -0.0000 </r>
       <r>   10.9690   -0.0000 </r>
      </set>
      <set comment="kpoint 55">
       <r>   -1.8318    1.0000 </r>
       <r>   -0.2795    1.0000 </r>
       <r>    0.2385    1.0000 </r>
       <r>    0.2447    1.0000 </r>
       <r>    0.9164    1.0000 </r>
       <r>    0.9599    1.0000 </r>
       <r>    1.6336    1.0000 </r>
       <r>    5.3107    1.0000 </r>
       <r>    6.6957    0.3979 </r>
       <r>    9.2468   -0.0000 </r>
       <r>   11.0529   -0.0000 </r>
       <r>   11.2546   -0.0000 </r>
      </set>
      <set comment="kpoint 56">
       <r>   -1.8242    1.0000 </r>
       <r>   -0.3003    1.0000 </r>
       <r>    0.2215    1.0000 </r>
       <r>    0.2434    1.0000 </r>
       <r>    1.0095    1.0000 </r>
       <r>    1.0223    1.0000 </r>
       <r>    1.4934    1.0000 </r>
       <r>    5.6294    1.0000 </r>
       <r>    6.3250    1.0172 </r>
       <r>    9.0598   -0.0000 </r>
       <r>   11.3056   -0.0000 </r>
       <r>   11.5824   -0.0000 </r>
      </set>
      <set comment="kpoint 57">
       <r>   -2.3533    1.0000 </r>
       <r>   -0.4539    1.0000 </r>
       <r>    0.1797    1.0000 </r>
       <r>    0.2152    1.0000 </r>
       <r>    0.8251    1.0000 </r>
       <r>    1.0249    1.0000 </r>
       <r>    2.8400    1.0000 </r>
       <r>    6.2115    1.0027 </r>
       <r>    6.3229    1.0167 </r>
       <r>    9.0123   -0.0000 </r>
       <r>   11.7239   -0.0000 </r>
       <r>   11.7384   -0.0000 </r>
      </set>
      <set comment="kpoint 58">
       <r>   -3.0057    1.0000 </r>
       <r>   -0.4262    1.0000 </r>
       <r>    0.1399    1.0000 </r>
       <r>    0.1476    1.0000 </r>
       <r>    0.7130    1.0000 </r>
       <r>    0.9913    1.0000 </r>
       <r>    4.6170    1.0000 </r>
       <r>    6.6479    0.5983 </r>
       <r>    6.9240   -0.0352 </r>
       <r>    8.9960   -0.0000 </r>
       <r>   10.5854   -0.0000 </r>
       <r>   12.0787   -0.0000 </r>
      </set>
      <set comment="kpoint 59">
       <r>   -3.3435    1.0000 </r>
       <r>   -0.3338    1.0000 </r>
       <r>    0.0588    1.0000 </r>
       <r>    0.0620    1.0000 </r>
       <r>    0.7666    1.0000 </r>
       <r>    0.9404    1.0000 </r>
       <r>    5.2687    1.0000 </r>
       <r>    7.2896   -0.0001 </r>
       <r>    7.7757   -0.0000 </r>
       <r>    9.3720   -0.0000 </r>
       <r>   10.9145   -0.0000 </r>
       <r>   11.3355   -0.0000 </r>
      </set>
      <set comment="kpoint 60">
       <r>   -2.9263    1.0000 </r>
       <r>   -0.4314    1.0000 </r>
       <r>    0.1338    1.0000 </r>
       <r>    0.1645    1.0000 </r>
       <r>    0.7215    1.0000 </r>
       <r>    0.9935    1.0000 </r>
       <r>    4.6063    1.0000 </r>
       <r>    5.6612    1.0000 </r>
       <r>    7.4728   -0.0000 </r>
       <r>    9.5390   -0.0000 </r>
       <r>   10.5758   -0.0000 </r>
       <r>   11.4591   -0.0000 </r>
      </set>
      <set comment="kpoint 61">
       <r>   -2.3140    1.0000 </r>
       <r>   -0.5017    1.0000 </r>
       <r>    0.1691    1.0000 </r>
       <r>    0.2888    1.0000 </r>
       <r>    0.7507    1.0000 </r>
       <r>    1.0252    1.0000 </r>
       <r>    3.4980    1.0000 </r>
       <r>    4.6295    1.0000 </r>
       <r>    6.7635    0.1522 </r>
       <r>    9.9696   -0.0000 </r>
       <r>   10.4120   -0.0000 </r>
       <r>   11.4970   -0.0000 </r>
      </set>
      <set comment="kpoint 62">
       <r>   -1.6903    1.0000 </r>
       <r>   -0.4513    1.0000 </r>
       <r>    0.2027    1.0000 </r>
       <r>    0.3582    1.0000 </r>
       <r>    0.8826    1.0000 </r>
       <r>    0.9484    1.0000 </r>
       <r>    2.1901    1.0000 </r>
       <r>    4.4278    1.0000 </r>
       <r>    6.1151    1.0003 </r>
       <r>    9.6726   -0.0000 </r>
       <r>   10.5787   -0.0000 </r>
       <r>   12.3139    0.0000 </r>
      </set>
      <set comment="kpoint 63">
       <r>   -1.4772    1.0000 </r>
       <r>   -0.3724    1.0000 </r>
       <r>    0.2410    1.0000 </r>
       <r>    0.3720    1.0000 </r>
       <r>    0.8294    1.0000 </r>
       <r>    1.0639    1.0000 </r>
       <r>    1.6388    1.0000 </r>
       <r>    4.5330    1.0000 </r>
       <r>    5.7901    1.0000 </r>
       <r>    9.4564   -0.0000 </r>
       <r>   10.7512   -0.0000 </r>
       <r>   12.5659    0.0000 </r>
      </set>
      <set comment="kpoint 64">
       <r>   -1.8601    1.0000 </r>
       <r>   -0.5164    1.0000 </r>
       <r>    0.1820    1.0000 </r>
       <r>    0.3507    1.0000 </r>
       <r>    0.8734    1.0000 </r>
       <r>    1.0156    1.0000 </r>
       <r>    2.4842    1.0000 </r>
       <r>    4.7473    1.0000 </r>
       <r>    5.9775    1.0000 </r>
       <r>    9.3734   -0.0000 </r>
       <r>   10.9843   -0.0000 </r>
       <r>   11.6388   -0.0000 </r>
      </set>
      <set comment="kpoint 65">
       <r>   -2.5183    1.0000 </r>
       <r>   -0.5200    1.0000 </r>
       <r>    0.1871    1.0000 </r>
       <r>    0.2760    1.0000 </r>
       <r>    0.7011    1.0000 </r>
       <r>    1.0365    1.0000 </r>
       <r>    3.9698    1.0000 </r>
       <r>    5.1305    1.0000 </r>
       <r>    6.5543    0.9134 </r>
       <r>    9.2901   -0.0000 </r>
       <r>   10.3340   -0.0000 </r>
       <r>   11.6791   -0.0000 </r>
      </set>
      <set comment="kpoint 66">
       <r>   -2.5921    1.0000 </r>
       <r>   -0.5221    1.0000 </r>
       <r>    0.2132    1.0000 </r>
       <r>    0.2515    1.0000 </r>
       <r>    0.6848    1.0000 </r>
       <r>    1.0398    1.0000 </r>
       <r>    3.9779    1.0000 </r>
       <r>    6.0237    1.0000 </r>
       <r>    6.0767    1.0001 </r>
       <r>    8.7242   -0.0000 </r>
       <r>   10.2594   -0.0000 </r>
       <r>   12.5966    0.0000 </r>
      </set>
      <set comment="kpoint 67">
       <r>   -2.0447    1.0000 </r>
       <r>   -0.6038    1.0000 </r>
       <r>    0.2041    1.0000 </r>
       <r>    0.3998    1.0000 </r>
       <r>    0.7391    1.0000 </r>
       <r>    1.0620    1.0000 </r>
       <r>    3.3381    1.0000 </r>
       <r>    4.6477    1.0000 </r>
       <r>    5.7533    1.0000 </r>
       <r>    9.1013   -0.0000 </r>
       <r>   10.1103   -0.0000 </r>
       <r>   12.0091   -0.0000 </r>
      </set>
      <set comment="kpoint 68">
       <r>   -1.3927    1.0000 </r>
       <r>   -0.6193    1.0000 </r>
       <r>    0.1432    1.0000 </r>
       <r>    0.5236    1.0000 </r>
       <r>    0.9171    1.0000 </r>
       <r>    0.9585    1.0000 </r>
       <r>    2.5768    1.0000 </r>
       <r>    3.7862    1.0000 </r>
       <r>    5.2347    1.0000 </r>
       <r>    9.6710   -0.0000 </r>
       <r>   10.6445   -0.0000 </r>
       <r>   11.4724   -0.0000 </r>
      </set>
      <set comment="kpoint 69">
       <r>   -1.0340    1.0000 </r>
       <r>   -0.4859    1.0000 </r>
       <r>    0.1832    1.0000 </r>
       <r>    0.5544    1.0000 </r>
       <r>    0.6253    1.0000 </r>
       <r>    1.1364    1.0000 </r>
       <r>    2.0779    1.0000 </r>
       <r>    3.4540    1.0000 </r>
       <r>    5.0443    1.0000 </r>
       <r>    9.8702   -0.0000 </r>
       <r>   10.9370   -0.0000 </r>
       <r>   12.0868   -0.0000 </r>
      </set>
      <set comment="kpoint 70">
       <r>   -1.2532    1.0000 </r>
       <r>   -0.5491    1.0000 </r>
       <r>    0.1766    1.0000 </r>
       <r>    0.5261    1.0000 </r>
       <r>    0.7635    1.0000 </r>
       <r>    0.9816    1.0000 </r>
       <r>    2.5336    1.0000 </r>
       <r>    3.3709    1.0000 </r>
       <r>    5.3397    1.0000 </r>
       <r>   10.1564   -0.0000 </r>
       <r>   10.5955   -0.0000 </r>
       <r>   11.7980   -0.0000 </r>
      </set>
      <set comment="kpoint 71">
       <r>   -1.8720    1.0000 </r>
       <r>   -0.5654    1.0000 </r>
       <r>    0.1750    1.0000 </r>
       <r>    0.4040    1.0000 </r>
       <r>    0.8058    1.0000 </r>
       <r>    1.0139    1.0000 </r>
       <r>    3.0120    1.0000 </r>
       <r>    4.1809    1.0000 </r>
       <r>    5.9285    1.0000 </r>
       <r>    9.8107   -0.0000 </r>
       <r>   10.5728   -0.0000 </r>
       <r>   11.3502   -0.0000 </r>
      </set>
      <set comment="kpoint 72">
       <r>   -1.5821    1.0000 </r>
       <r>   -0.6821    1.0000 </r>
       <r>    0.2090    1.0000 </r>
       <r>    0.4881    1.0000 </r>
       <r>    0.8263    1.0000 </r>
       <r>    1.0997    1.0000 </r>
       <r>    2.6737    1.0000 </r>
       <r>    4.5212    1.0000 </r>
       <r>    5.2021    1.0000 </r>
       <r>    8.4230   -0.0000 </r>
       <r>    9.8202   -0.0000 </r>
       <r>   13.1805    0.0000 </r>
      </set>
      <set comment="kpoint 73">
       <r>   -0.9902    1.0000 </r>
       <r>   -0.7156    1.0000 </r>
       <r>    0.0866    1.0000 </r>
       <r>    0.6294    1.0000 </r>
       <r>    1.0032    1.0000 </r>
       <r>    1.0283    1.0000 </r>
       <r>    2.0998    1.0000 </r>
       <r>    3.9085    1.0000 </r>
       <r>    4.7346    1.0000 </r>
       <r>    8.8832   -0.0000 </r>
       <r>    9.8285   -0.0000 </r>
       <r>   12.7403    0.0000 </r>
      </set>
      <set comment="kpoint 74">
       <r>   -0.7145    1.0000 </r>
       <r>   -0.4421    1.0000 </r>
       <r>   -0.0846    1.0000 </r>
       <r>    0.6913    1.0000 </r>
       <r>    0.7008    1.0000 </r>
       <r>    1.2832    1.0000 </r>
       <r>    1.9229    1.0000 </r>
       <r>    3.2830    1.0000 </r>
       <r>    4.5107    1.0000 </r>
       <r>    9.5295   -0.0000 </r>
       <r>   10.5749   -0.0000 </r>
       <r>   12.1016   -0.0000 </r>
      </set>
      <set comment="kpoint 75">
       <r>   -0.8476    1.0000 </r>
       <r>   -0.4822    1.0000 </r>
       <r>    0.1671    1.0000 </r>
       <r>    0.4906    1.0000 </r>
       <r>    0.6293    1.0000 </r>
       <r>    1.1654    1.0000 </r>
       <r>    2.3592    1.0000 </r>
       <r>    2.9307    1.0000 </r>
       <r>    4.8449    1.0000 </r>
       <r>    9.8680   -0.0000 </r>
       <r>   11.2649   -0.0000 </r>
       <r>   12.0215   -0.0000 </r>
      </set>
      <set comment="kpoint 76">
       <r>   -1.3389    1.0000 </r>
       <r>   -0.4733    1.0000 </r>
       <r>    0.2002    1.0000 </r>
       <r>    0.4580    1.0000 </r>
       <r>    0.7883    1.0000 </r>
       <r>    1.0332    1.0000 </r>
       <r>    2.0282    1.0000 </r>
       <r>    3.9703    1.0000 </r>
       <r>    5.4750    1.0000 </r>
       <r>    9.8249   -0.0000 </r>
       <r>   10.6452   -0.0000 </r>
       <r>   12.2076    0.0000 </r>
      </set>
      <set comment="kpoint 77">
       <r>   -0.8235    1.0000 </r>
       <r>   -0.5017    1.0000 </r>
       <r>   -0.0069    1.0000 </r>
       <r>    0.6593    1.0000 </r>
       <r>    1.0971    1.0000 </r>
       <r>    1.1649    1.0000 </r>
       <r>    1.4958    1.0000 </r>
       <r>    3.8078    1.0000 </r>
       <r>    4.7897    1.0000 </r>
       <r>    8.3175   -0.0000 </r>
       <r>    9.6443   -0.0000 </r>
       <r>   13.5200    0.0000 </r>
      </set>
      <set comment="kpoint 78">
       <r>   -0.7694    1.0000 </r>
       <r>   -0.4819    1.0000 </r>
       <r>   -0.0777    1.0000 </r>
       <r>    0.6926    1.0000 </r>
       <r>    0.9582    1.0000 </r>
       <r>    1.2401    1.0000 </r>
       <r>    1.6029    1.0000 </r>
       <r>    3.7323    1.0000 </r>
       <r>    4.5380    1.0000 </r>
       <r>    8.8422   -0.0000 </r>
       <r>    9.7736   -0.0000 </r>
       <r>   12.9829    0.0000 </r>
      </set>
      <set comment="kpoint 79">
       <r>   -0.9183    1.0000 </r>
       <r>   -0.6466    1.0000 </r>
       <r>    0.0678    1.0000 </r>
       <r>    0.6284    1.0000 </r>
       <r>    0.8195    1.0000 </r>
       <r>    1.1081    1.0000 </r>
       <r>    2.1991    1.0000 </r>
       <r>    3.4689    1.0000 </r>
       <r>    4.7518    1.0000 </r>
       <r>    9.5765   -0.0000 </r>
       <r>   10.6098   -0.0000 </r>
       <r>   11.7990   -0.0000 </r>
      </set>
      <set comment="kpoint 80">
       <r>   -1.0551    1.0000 </r>
       <r>   -0.7124    1.0000 </r>
       <r>    0.1301    1.0000 </r>
       <r>    0.5935    1.0000 </r>
       <r>    0.9735    1.0000 </r>
       <r>    1.1032    1.0000 </r>
       <r>    2.0294    1.0000 </r>
       <r>    4.0505    1.0000 </r>
       <r>    4.9303    1.0000 </r>
       <r>    8.3513   -0.0000 </r>
       <r>    9.7019   -0.0000 </r>
       <r>   13.3993    0.0000 </r>
      </set>
      <set comment="kpoint 81">
       <r>   -1.5224    1.0000 </r>
       <r>   -0.6733    1.0000 </r>
       <r>    0.1705    1.0000 </r>
       <r>    0.5237    1.0000 </r>
       <r>    0.8487    1.0000 </r>
       <r>    1.0577    1.0000 </r>
       <r>    2.7052    1.0000 </r>
       <r>    4.2289    1.0000 </r>
       <r>    5.1377    1.0000 </r>
       <r>    8.9679   -0.0000 </r>
       <r>    9.9401   -0.0000 </r>
       <r>   12.3825    0.0000 </r>
      </set>
      <set comment="kpoint 82">
       <r>   -2.1116    1.0000 </r>
       <r>   -0.6110    1.0000 </r>
       <r>    0.2407    1.0000 </r>
       <r>    0.3684    1.0000 </r>
       <r>    0.7200    1.0000 </r>
       <r>    1.0780    1.0000 </r>
       <r>    3.3334    1.0000 </r>
       <r>    5.1953    1.0000 </r>
       <r>    5.5897    1.0000 </r>
       <r>    8.5419   -0.0000 </r>
       <r>   10.0043   -0.0000 </r>
       <r>   12.9004    0.0000 </r>
      </set>
      <set comment="kpoint 83">
[...]
        <r>  0.0000  0.1712  0.0481 </r>
        <r>  0.0000  0.1712  0.0481 </r>
       </set>
       <set comment="band 10">
        <r>  0.0770  0.0038  0.0753 </r>
        <r>  0.2189  0.0262  0.0223 </r>
        <r>  0.2189  0.0262  0.0223 </r>
       </set>
       <set comment="band 11">
        <r>  0.0000  0.0061  0.1919 </r>
        <r>  0.0000  0.1773  0.0440 </r>
        <r>  0.0000  0.1773  0.0440 </r>
       </set>
       <set comment="band 12">
        <r>  0.0000  0.0061  0.1919 </r>
        <r>  0.0000  0.1773  0.0440 </r>
        <r>  0.0000  0.1773  0.0440 </r>
       </set>
      </set>
      <set comment="kpoint 102">
       <set comment="band 1">
        <r>  0.2250  0.0160  0.0888 </r>
        <r>  0.1629  0.0320  0.0019 </r>
        <r>  0.1629  0.0320  0.0019 </r>
       </set>
       <set comment="band 2">
        <r>  0.0055  0.0386  0.5317 </r>
        <r>  0.0963  0.0308  0.0039 </r>
        <r>  0.0963  0.0308  0.0039 </r>
       </set>
       <set comment="band 3">
        <r>  0.0037  0.0069  0.7662 </r>
        <r>  0.0024  0.0502  0.0070 </r>
        <r>  0.0024  0.0502  0.0070 </r>
       </set>
       <set comment="band 4">
        <r>  0.0000  0.0000  0.8227 </r>
        <r>  0.0000  0.0427  0.0102 </r>
        <r>  0.0000  0.0427  0.0102 </r>
       </set>
       <set comment="band 5">
        <r>  0.0000  0.0008  0.8786 </r>
        <r>  0.0000  0.0059  0.0099 </r>
        <r>  0.0000  0.0059  0.0099 </r>
       </set>
       <set comment="band 6">
        <r>  0.0114  0.0001  0.8863 </r>
        <r>  0.0003  0.0019  0.0109 </r>
        <r>  0.0003  0.0019  0.0109 </r>
       </set>
       <set comment="band 7">
        <r>  0.1269  0.0902  0.2588 </r>
        <r>  0.0597  0.0652  0.0210 </r>
        <r>  0.0597  0.0652  0.0210 </r>
       </set>
       <set comment="band 8">
        <r>  0.0297  0.1927  0.0772 </r>
        <r>  0.0406  0.1382  0.0332 </r>
        <r>  0.0406  0.1382  0.0332 </r>
       </set>
       <set comment="band 9">
        <r>  0.0000  0.2478  0.0276 </r>
        <r>  0.0000  0.1778  0.0448 </r>
        <r>  0.0000  0.1778  0.0448 </r>
       </set>
       <set comment="band 10">
        <r>  0.0035  0.0101  0.0867 </r>
        <r>  0.0970  0.0888  0.0375 </r>
        <r>  0.0970  0.0888  0.0375 </r>
       </set>
       <set comment="band 11">
        <r>  0.1225  0.0221  0.1289 </r>
        <r>  0.1668  0.0650  0.0223 </r>
        <r>  0.1668  0.0650  0.0223 </r>
       </set>
       <set comment="band 12">
        <r>  0.0000  0.0027  0.1940 </r>
        <r>  0.0000  0.1796  0.0448 </r>
        <r>  0.0000  0.1796  0.0448 </r>
       </set>
      </set>
      <set comment="kpoint 103">
       <set comment="band 1">
        <r>  0.2005  0.0189  0.1512 </r>
        <r>  0.1497  0.0354  0.0036 </r>
        <r>  0.1497  0.0354  0.0036 </r>
       </set>
       <set comment="band 2">
        <r>  0.0020  0.0348  0.5511 </r>
        <r>  0.1082  0.0173  0.0068 </r>
        <r>  0.1082  0.0173  0.0068 </r>
       </set>
       <set comment="band 3">
        <r>  0.0085  0.0168  0.6875 </r>
        <r>  0.0046  0.0543  0.0053 </r>
        <r>  0.0046  0.0543  0.0053 </r>
       </set>
       <set comment="band 4">
        <r>  0.0000  0.0003  0.8427 </r>
        <r>  0.0000  0.0359  0.0114 </r>
        <r>  0.0000  0.0359  0.0114 </r>
       </set>
       <set comment="band 5">
        <r>  0.0000  0.0016  0.8671 </r>
        <r>  0.0000  0.0097  0.0077 </r>
        <r>  0.0000  0.0097  0.0077 </r>
       </set>
       <set comment="band 6">
        <r>  0.0867  0.0002  0.7478 </r>
        <r>  0.0000  0.0228  0.0145 </r>
        <r>  0.0000  0.0228  0.0145 </r>
       </set>
       <set comment="band 7">
        <r>  0.0851  0.0908  0.3233 </r>
        <r>  0.0626  0.0641  0.0139 </r>
        <r>  0.0626  0.0641  0.0139 </r>
       </set>
       <set comment="band 8">
        <r>  0.0475  0.1523  0.1537 </r>
        <r>  0.0714  0.1016  0.0221 </r>
        <r>  0.0714  0.1016  0.0221 </r>
       </set>
       <set comment="band 9">
        <r>  0.0000  0.2227  0.0543 </r>
        <r>  0.0000  0.1853  0.0309 </r>
        <r>  0.0000  0.1853  0.0309 </r>
       </set>
       <set comment="band 10">
        <r>  0.0254  0.0042  0.1587 </r>
        <r>  0.0973  0.0683  0.0396 </r>
        <r>  0.0973  0.0683  0.0396 </r>
       </set>
       <set comment="band 11">
        <r>  0.0000  0.0075  0.1456 </r>
        <r>  0.0000  0.1860  0.0630 </r>
        <r>  0.0000  0.1860  0.0630 </r>
       </set>
       <set comment="band 12">
        <r>  0.0816  0.0335  0.0663 </r>
        <r>  0.1277  0.1090  0.0268 </r>
        <r>  0.1277  0.1090  0.0268 </r>
       </set>
      </set>
      <set comment="kpoint 104">
       <set comment="band 1">
        <r>  0.1456  0.0190  0.2906 </r>
        <r>  0.1313  0.0315  0.0064 </r>
        <r>  0.1313  0.0315  0.0064 </r>
       </set>
       <set comment="band 2">
        <r>  0.0000  0.0352  0.5520 </r>
        <r>  0.1208  0.0070  0.0083 </r>
        <r>  0.1208  0.0070  0.0083 </r>
       </set>
       <set comment="band 3">
        <r>  0.0020  0.0217  0.6431 </r>
        <r>  0.0073  0.0507  0.0048 </r>
        <r>  0.0073  0.0507  0.0048 </r>
       </set>
       <set comment="band 4">
        <r>  0.0000  0.0001  0.8717 </r>
        <r>  0.0000  0.0273  0.0130 </r>
        <r>  0.0000  0.0273  0.0130 </r>
       </set>
       <set comment="band 5">
        <r>  0.2248  0.0013  0.4688 </r>
        <r>  0.0003  0.0675  0.0176 </r>
        <r>  0.0003  0.0675  0.0176 </r>
       </set>
       <set comment="band 6">
        <r>  0.0000  0.0029  0.8587 </r>
        <r>  0.0000  0.0126  0.0044 </r>
        <r>  0.0000  0.0126  0.0044 </r>
       </set>
       <set comment="band 7">
        <r>  0.0199  0.1055  0.3706 </r>
        <r>  0.0841  0.0531  0.0115 </r>
        <r>  0.0841  0.0531  0.0115 </r>
       </set>
       <set comment="band 8">
        <r>  0.0539  0.1192  0.2673 </r>
        <r>  0.0692  0.0797  0.0128 </r>
        <r>  0.0692  0.0797  0.0128 </r>
       </set>
       <set comment="band 9">
        <r>  0.0000  0.2066  0.0607 </r>
        <r>  0.0000  0.1939  0.0188 </r>
        <r>  0.0000  0.1939  0.0188 </r>
       </set>
       <set comment="band 10">
        <r>  0.0327  0.0014  0.2050 </r>
        <r>  0.1084  0.0501  0.0390 </r>
        <r>  0.1084  0.0501  0.0390 </r>
       </set>
       <set comment="band 11">
        <r>  0.0000  0.0012  0.0984 </r>
        <r>  0.0000  0.1802  0.0907 </r>
        <r>  0.0000  0.1802  0.0907 </r>
       </set>
       <set comment="band 12">
        <r>  0.1208  0.0138  0.0292 </r>
        <r>  0.0064  0.1111  0.0950 </r>
        <r>  0.0064  0.1111  0.0950 </r>
       </set>
      </set>
      <set comment="kpoint 105">
       <set comment="band 1">
        <r>  0.2155  0.0118  0.1338 </r>
        <r>  0.1542  0.0342  0.0019 </r>
        <r>  0.1542  0.0342  0.0019 </r>
       </set>
       <set comment="band 2">
        <r>  0.0074  0.0523  0.4599 </r>
        <r>  0.1099  0.0307  0.0054 </r>
        <r>  0.1099  0.0307  0.0054 </r>
       </set>
       <set comment="band 3">
        <r>  0.0000  0.0008  0.8168 </r>
        <r>  0.0000  0.0435  0.0092 </r>
        <r>  0.0000  0.0435  0.0092 </r>
       </set>
       <set comment="band 4">
        <r>  0.0043  0.0102  0.7452 </r>
        <r>  0.0060  0.0487  0.0074 </r>
        <r>  0.0060  0.0487  0.0074 </r>
       </set>
       <set comment="band 5">
        <r>  0.0147  0.0019  0.8627 </r>
        <r>  0.0021  0.0062  0.0115 </r>
        <r>  0.0021  0.0062  0.0115 </r>
       </set>
       <set comment="band 6">
        <r>  0.0000  0.0000  0.9057 </r>
        <r>  0.0000  0.0001  0.0091 </r>
        <r>  0.0000  0.0001  0.0091 </r>
       </set>
       <set comment="band 7">
        <r>  0.1333  0.0728  0.3154 </r>
        <r>  0.0543  0.0602  0.0187 </r>
        <r>  0.0543  0.0602  0.0187 </r>
       </set>
       <set comment="band 8">
        <r>  0.0364  0.2036  0.0634 </r>
        <r>  0.0411  0.1396  0.0375 </r>
        <r>  0.0411  0.1396  0.0375 </r>
       </set>
       <set comment="band 9">
        <r>  0.0000  0.2272  0.0307 </r>
        <r>  0.0000  0.1841  0.0357 </r>
        <r>  0.0000  0.1841  0.0357 </r>
       </set>
       <set comment="band 10">
        <r>  0.0137  0.0000  0.1302 </r>
        <r>  0.1136  0.0747  0.0325 </r>
        <r>  0.1136  0.0747  0.0325 </r>
       </set>
       <set comment="band 11">
        <r>  0.0000  0.0143  0.1678 </r>
        <r>  0.0000  0.1705  0.0588 </r>
        <r>  0.0000  0.1705  0.0588 </r>
       </set>
       <set comment="band 12">
        <r>  0.1534  0.0371  0.1178 </r>
        <r>  0.1402  0.0691  0.0287 </r>
        <r>  0.1402  0.0691  0.0287 </r>
       </set>
      </set>
      <set comment="kpoint 106">
       <set comment="band 1">
        <r>  0.1941  0.0118  0.1962 </r>
        <r>  0.1426  0.0359  0.0029 </r>
        <r>  0.1426  0.0359  0.0029 </r>
       </set>
       <set comment="band 2">
        <r>  0.0032  0.0477  0.4876 </r>
        <r>  0.1167  0.0195  0.0084 </r>
        <r>  0.1167  0.0195  0.0084 </r>
       </set>
       <set comment="band 3">
        <r>  0.0066  0.0202  0.6700 </r>
        <r>  0.0093  0.0528  0.0054 </r>
        <r>  0.0093  0.0528  0.0054 </r>
       </set>
       <set comment="band 4">
        <r>  0.0000  0.0011  0.8302 </r>
        <r>  0.0003  0.0381  0.0101 </r>
        <r>  0.0003  0.0381  0.0101 </r>
       </set>
       <set comment="band 5">
        <r>  0.0278  0.0019  0.8334 </r>
        <r>  0.0012  0.0123  0.0091 </r>
        <r>  0.0012  0.0123  0.0091 </r>
       </set>
       <set comment="band 6">
        <r>  0.0803  0.0016  0.7607 </r>
        <r>  0.0015  0.0191  0.0148 </r>
        <r>  0.0015  0.0191  0.0148 </r>
       </set>
       <set comment="band 7">
        <r>  0.0689  0.0726  0.4212 </r>
        <r>  0.0579  0.0522  0.0114 </r>
        <r>  0.0579  0.0522  0.0114 </r>
       </set>
       <set comment="band 8">
        <r>  0.0507  0.1703  0.1073 </r>
        <r>  0.0627  0.1184  0.0265 </r>
        <r>  0.0627  0.1184  0.0265 </r>
       </set>
       <set comment="band 9">
        <r>  0.0021  0.1990  0.0771 </r>
        <r>  0.0094  0.1719  0.0268 </r>
        <r>  0.0094  0.1719  0.0268 </r>
       </set>
       <set comment="band 10">
        <r>  0.0009  0.0324  0.1063 </r>
        <r>  0.0887  0.0856  0.0452 </r>
        <r>  0.0887  0.0856  0.0452 </r>
       </set>
       <set comment="band 11">
        <r>  0.0566  0.0069  0.1791 </r>
        <r>  0.0666  0.1241  0.0395 </r>
        <r>  0.0666  0.1241  0.0395 </r>
       </set>
       <set comment="band 12">
        <r>  0.0991  0.0112  0.0774 </r>
        <r>  0.0349  0.1442  0.0625 </r>
        <r>  0.0349  0.1442  0.0625 </r>
       </set>
      </set>
      <set comment="kpoint 107">
       <set comment="band 1">
        <r>  0.1516  0.0157  0.2917 </r>
        <r>  0.1299  0.0331  0.0053 </r>
        <r>  0.1299  0.0331  0.0053 </r>
       </set>
       <set comment="band 2">
        <r>  0.0001  0.0388  0.5316 </r>
        <r>  0.1217  0.0080  0.0099 </r>
        <r>  0.1217  0.0080  0.0099 </r>
       </set>
       <set comment="band 3">
        <r>  0.0005  0.0206  0.6561 </r>
        <r>  0.0059  0.0501  0.0051 </r>
        <r>  0.0059  0.0501  0.0051 </r>
       </set>
       <set comment="band 4">
        <r>  0.0001  0.0016  0.8551 </r>
        <r>  0.0008  0.0299  0.0113 </r>
        <r>  0.0008  0.0299  0.0113 </r>
       </set>
       <set comment="band 5">
        <r>  0.1528  0.0010  0.5879 </r>
        <r>  0.0014  0.0519  0.0124 </r>
        <r>  0.0014  0.0519  0.0124 </r>
       </set>
       <set comment="band 6">
        <r>  0.0814  0.0029  0.7481 </r>
        <r>  0.0015  0.0208  0.0119 </r>
        <r>  0.0015  0.0208  0.0119 </r>
       </set>
       <set comment="band 7">
        <r>  0.0072  0.0928  0.4373 </r>
        <r>  0.0739  0.0509  0.0077 </r>
        <r>  0.0739  0.0509  0.0077 </r>
       </set>
       <set comment="band 8">
        <r>  0.0551  0.1393  0.1896 </r>
        <r>  0.0793  0.0899  0.0180 </r>
        <r>  0.0793  0.0899  0.0180 </r>
       </set>
       <set comment="band 9">
        <r>  0.0014  0.1783  0.1167 </r>
        <r>  0.0110  0.1681  0.0158 </r>
        <r>  0.0110  0.1681  0.0158 </r>
       </set>
       <set comment="band 10">
        <r>  0.0173  0.0313  0.1468 </r>
        <r>  0.0867  0.0823  0.0463 </r>
        <r>  0.0867  0.0823  0.0463 </r>
       </set>
       <set comment="band 11">
        <r>  0.0246  0.0181  0.1299 </r>
        <r>  0.0551  0.1409  0.0550 </r>
        <r>  0.0551  0.1409  0.0550 </r>
       </set>
       <set comment="band 12">
        <r>  0.1294  0.0060  0.0285 </r>
        <r>  0.0017  0.1176  0.0954 </r>
        <r>  0.0017  0.1176  0.0954 </r>
       </set>
      </set>
      <set comment="kpoint 108">
       <set comment="band 1">
        <r>  0.1785  0.0100  0.2456 </r>
        <r>  0.1350  0.0357  0.0034 </r>
        <r>  0.1350  0.0357  0.0034 </r>
       </set>
       <set comment="band 2">
        <r>  0.0023  0.0495  0.4794 </r>
        <r>  0.1225  0.0156  0.0097 </r>
        <r>  0.1225  0.0156  0.0097 </r>
       </set>
       <set comment="band 3">
        <r>  0.0047  0.0218  0.6539 </r>
        <r>  0.0099  0.0514  0.0050 </r>
        <r>  0.0099  0.0514  0.0050 </r>
       </set>
       <set comment="band 4">
        <r>  0.0000  0.0010  0.8371 </r>
        <r>  0.0000  0.0362  0.0103 </r>
        <r>  0.0000  0.0362  0.0103 </r>
       </set>
       <set comment="band 5">
        <r>  0.0000  0.0009  0.8942 </r>
        <r>  0.0000  0.0041  0.0072 </r>
        <r>  0.0000  0.0041  0.0072 </r>
       </set>
       <set comment="band 6">
        <r>  0.1961  0.0029  0.5465 </r>
        <r>  0.0017  0.0479  0.0196 </r>
        <r>  0.0017  0.0479  0.0196 </r>
       </set>
       <set comment="band 7">
        <r>  0.0026  0.0744  0.5208 </r>
        <r>  0.0637  0.0414  0.0069 </r>
        <r>  0.0637  0.0414  0.0069 </r>
       </set>
       <set comment="band 8">
        <r>  0.0536  0.1558  0.1459 </r>
        <r>  0.0675  0.1058  0.0230 </r>
        <r>  0.0675  0.1058  0.0230 </r>
       </set>
       <set comment="band 9">
        <r>  0.0000  0.2130  0.0467 </r>
        <r>  0.0000  0.1917  0.0245 </r>
        <r>  0.0000  0.1917  0.0245 </r>
       </set>
       <set comment="band 10">
        <r>  0.0253  0.0015  0.1815 </r>
        <r>  0.1096  0.0579  0.0369 </r>
        <r>  0.1096  0.0579  0.0369 </r>
       </set>
       <set comment="band 11">
        <r>  0.0000  0.0136  0.1311 </r>
        <r>  0.0000  0.1704  0.0773 </r>
        <r>  0.0000  0.1704  0.0773 </r>
       </set>
       <set comment="band 12">
        <r>  0.1149  0.0217  0.0660 </r>
        <r>  0.0897  0.1145  0.0385 </r>
        <r>  0.0897  0.1145  0.0385 </r>
       </set>
      </set>
      <set comment="kpoint 109">
       <set comment="band 1">
        <r>  0.2109  0.0040  0.1755 </r>
        <r>  0.1486  0.0342  0.0013 </r>
        <r>  0.1486  0.0342  0.0013 </r>
       </set>
       <set comment="band 2">
        <r>  0.0105  0.1028  0.1953 </r>
        <r>  0.1496  0.0472  0.0021 </r>
        <r>  0.1496  0.0472  0.0021 </r>
       </set>
       <set comment="band 3">
        <r>  0.0000  0.0000  0.8135 </r>
        <r>  0.0000  0.0439  0.0096 </r>
        <r>  0.0000  0.0439  0.0096 </r>
       </set>
       <set comment="band 4">
        <r>  0.0000  0.0000  0.8135 </r>
        <r>  0.0000  0.0439  0.0096 </r>
        <r>  0.0000  0.0439  0.0096 </r>
       </set>
       <set comment="band 5">
        <r>  0.0000  0.0001  0.9027 </r>
        <r>  0.0000  0.0006  0.0099 </r>
        <r>  0.0000  0.0006  0.0099 </r>
       </set>
       <set comment="band 6">
        <r>  0.0000  0.0001  0.9027 </r>
        <r>  0.0000  0.0006  0.0099 </r>
        <r>  0.0000  0.0006  0.0099 </r>
       </set>
       <set comment="band 7">
        <r>  0.1539  0.0364  0.4642 </r>
        <r>  0.0310  0.0446  0.0197 </r>
        <r>  0.0310  0.0446  0.0197 </r>
       </set>
       <set comment="band 8">
        <r>  0.0000  0.2466  0.0034 </r>
        <r>  0.0000  0.1842  0.0451 </r>
        <r>  0.0000  0.1842  0.0451 </r>
       </set>
       <set comment="band 9">
        <r>  0.0000  0.2466  0.0034 </r>
        <r>  0.0000  0.1842  0.0451 </r>
        <r>  0.0000  0.1842  0.0451 </r>
       </set>
       <set comment="band 10">
        <r>  0.0276  0.0001  0.0260 </r>
        <r>  0.1604  0.0559  0.0280 </r>
        <r>  0.1604  0.0559  0.0280 </r>
       </set>
       <set comment="band 11">
        <r>  0.1820  0.0020  0.1479 </r>
        <r>  0.1849  0.0262  0.0207 </r>
        <r>  0.1849  0.0262  0.0207 </r>
       </set>
       <set comment="band 12">
        <r>  0.0000  0.0006  0.2108 </r>
        <r>  0.0000  0.1717  0.0436 </r>
        <r>  0.0000  0.1717  0.0436 </r>
       </set>
      </set>
      <set comment="kpoint 110">
       <set comment="band 1">
        <r>  0.1993  0.0032  0.2126 </r>
        <r>  0.1419  0.0351  0.0018 </r>
        <r>  0.1419  0.0351  0.0018 </r>
       </set>
       <set comment="band 2">
        <r>  0.0006  0.0686  0.4006 </r>
        <r>  0.1216  0.0311  0.0075 </r>
        <r>  0.1216  0.0311  0.0075 </r>
       </set>
       <set comment="band 3">
        <r>  0.0000  0.0003  0.8198 </r>
        <r>  0.0000  0.0416  0.0099 </r>
        <r>  0.0000  0.0416  0.0099 </r>
       </set>
       <set comment="band 4">
        <r>  0.0013  0.0438  0.5556 </r>
        <r>  0.0379  0.0568  0.0046 </r>
        <r>  0.0379  0.0568  0.0046 </r>
       </set>
       <set comment="band 5">
        <r>  0.0000  0.0003  0.8988 </r>
        <r>  0.0000  0.0020  0.0092 </r>
        <r>  0.0000  0.0020  0.0092 </r>
       </set>
       <set comment="band 6">
        <r>  0.1257  0.0010  0.6884 </r>
        <r>  0.0012  0.0291  0.0166 </r>
        <r>  0.0012  0.0291  0.0166 </r>
       </set>
       <set comment="band 7">
        <r>  0.0506  0.0299  0.6719 </r>
        <r>  0.0281  0.0228  0.0119 </r>
        <r>  0.0281  0.0228  0.0119 </r>
       </set>
       <set comment="band 8">
        <r>  0.0320  0.1988  0.0598 </r>
        <r>  0.0378  0.1465  0.0339 </r>
        <r>  0.0378  0.1465  0.0339 </r>
       </set>
       <set comment="band 9">
        <r>  0.0000  0.2346  0.0205 </r>
        <r>  0.0000  0.1867  0.0384 </r>
        <r>  0.0000  0.1867  0.0384 </r>
       </set>
       <set comment="band 10">
        <r>  0.0092  0.0030  0.1139 </r>
        <r>  0.1019  0.0788  0.0362 </r>
        <r>  0.1019  0.0788  0.0362 </r>
       </set>
       <set comment="band 11">
        <r>  0.0000  0.0073  0.1871 </r>
        <r>  0.0000  0.1725  0.0521 </r>
        <r>  0.0000  0.1725  0.0521 </r>
       </set>
       <set comment="band 12">
        <r>  0.1432  0.0199  0.1251 </r>
        <r>  0.1493  0.0645  0.0251 </r>
        <r>  0.1493  0.0645  0.0251 </r>
       </set>
      </set>
     </set>
    </set>
   </array>
  </projected>
 </calculation>
 <structure name="finalpos" >
  <crystal>
   <varray name="basis" >
    <v>      -0.00000000       2.98029020       2.98029020 </v>
    <v>       2.98029020       0.00000000       2.98029020 </v>
    <v>       2.98029020       2.98029020       0.00000000 </v>
   </varray>
   <i name="volume">     52.94264795 </i>
   <varray name="rec_basis" >
    <v>      -0.16776890       0.16776890       0.16776890 </v>
    <v>       0.16776890      -0.16776890       0.16776890 </v>
    <v>       0.16776890       0.16776890      -0.16776890 </v>
   </varray>
  </crystal>
  <varray name="positions" >
   <v>      -0.00000000       0.00000000       0.00000000 </v>
   <v>       0.25000000       0.25000000       0.25000000 </v>
   <v>       0.75000000       0.75000000       0.75000000 </v>
  </varray>
 </structure>
</modeling>
