AuAl2                                   
           1
     0.000000    3.250000    3.250000
     3.250000    0.000000    3.250000
     3.250000    3.250000    0.000000
   Au   Al
   1   2
AuAl2                                   
           1
    -0.000000    2.885714    2.885714
     2.885714    0.000000    2.885714
     2.885714    2.885714    0.000000
   Au   Al
   1   2
Direct configuration=     1
   0.00000000  0.00000000  0.00000000
   0.25000000  0.25000000  0.25000000
   0.75000000  0.75000000  0.75000000
AuAl2                                   
           1
    -0.000000    2.980290    2.980290
     2.980290    0.000000    2.980290
     2.980290    2.980290    0.000000
   Au   Al
   1   2
Direct configuration=     2
  -0.00000000  0.00000000  0.00000000
   0.25000000  0.25000000  0.25000000
   0.75000000  0.75000000  0.75000000
AuAl2                                   
           1
    -0.000000    2.980290    2.980290
     2.980290    0.000000    2.980290
     2.980290    2.980290    0.000000
   Au   Al
   1   2
Direct configuration=     3
  -0.00000000  0.00000000  0.00000000
   0.25000000  0.25000000  0.25000000
   0.75000000  0.75000000  0.75000000
