AuAl2                                   
   6.50000000000000     
     0.000000    0.458506    0.458506
     0.458506    0.000000    0.458506
     0.458506    0.458506    0.000000
   Au   Al
     1     2
Direct
  0.000000  0.000000  0.000000
  0.250000  0.250000  0.250000
  0.750000  0.750000  0.750000
 
   32   32   32
  243.97      233.18      205.99      172.74      139.93      108.25      77.807      51.795      33.853      23.843    
  18.124      14.619      12.553      11.395      10.657      10.110      9.8837      10.110      10.657      11.395    
  12.553      14.619      18.124      23.843      33.853      51.795      77.807      108.25      139.93      172.74    
  205.99      233.18      233.18      214.45      184.76      152.64      121.34      90.728      62.533      40.826    
  27.654      20.517      16.099      13.384      11.884      11.040      10.374      9.9254      9.9616      10.402    
  10.994      11.859      13.442      16.125      20.449      27.621      40.905      62.592      90.687      121.33    
  152.69      184.67      214.19      233.02      205.99      184.76      157.30      128.33      99.153      71.078    
  47.512      31.616      22.848      17.727      14.488      12.490      11.398      10.724      10.159      9.9002    
  10.159      10.723      11.398      12.490      14.488      17.727      22.848      31.616      47.512      71.078    
  99.153      128.33      157.30      184.76      205.99      214.19      172.74      152.64      128.33      102.03    
  75.632      52.257      35.164      24.994      19.161      15.570      13.293      11.865      11.005      10.418    
  10.026      10.001      10.398      11.038      11.882      13.251      15.553      19.211      25.015      35.095    
  52.203      75.674      102.09      128.33      152.69      172.88      184.76      184.67      139.93      121.34    
  99.153      75.632      53.896      37.155      26.586      20.374      16.469      14.004      12.408      11.354    
  10.621      10.130      9.9476      10.130      10.621      11.354      12.408      14.004      16.469      20.374    
  26.586      37.155      53.896      75.632      99.153      121.35      139.93      152.69      157.30      152.69    
  108.25      90.728      71.078      52.257      37.155      27.118      21.019      17.110      14.582      12.867    
  11.678      10.824      10.202      9.8549      9.8644      10.209      10.811      11.673      12.885      14.586    
  17.088      21.022      27.167      37.182      52.203      70.989      90.687      108.26      121.35      128.33    
  128.33      121.33      77.807      62.533      47.512      35.164      26.586      21.019      17.307      14.890    
  13.212      11.947      10.968      10.227      9.7396      9.5648      9.7397      10.228      10.968      11.947    
  13.212      14.890      17.307      21.020      26.586      35.164      47.512      62.533      77.808      90.687    
  99.153      102.09      99.153      90.687      51.795      40.826      31.616      24.994      20.374      17.110    
  14.890      13.324      12.107      11.081      10.222      9.5863      9.2470      9.2485      9.5886      10.221    
  11.078      12.107      13.327      14.885      17.088      20.354      25.015      31.689      40.906      51.816    
  62.533      70.989      75.632      75.674      71.078      62.592      33.853      27.654      22.848      19.161    
  16.469      14.582      13.212      12.107      11.119      10.218      9.4632      8.9545      8.7746      8.9545    
  9.4632      10.218      11.119      12.107      13.212      14.582      16.469      19.161      22.848      27.654    
  33.853      40.906      47.512      52.203      53.896      52.203      47.512      40.905      23.843      20.517    
  17.727      15.570      14.004      12.867      11.947      11.081      10.218      9.4121      8.7768      8.4232    
  8.4210      8.7748      9.4147      10.219      11.078      11.950      12.885      14.020      15.552      17.666    
  20.449      23.815      27.654      31.689      35.164      37.182      37.155      35.095      31.616      27.621    
  18.124      16.099      14.488      13.293      12.408      11.678      10.968      10.222      9.4632      8.7768    
  8.2885      8.1106      8.2884      8.7768      9.4632      10.222      10.968      11.678      12.408      13.293    
  14.488      16.099      18.124      20.449      22.848      25.015      26.586      27.167      26.586      25.015    
  22.848      20.449      14.619      13.384      12.490      11.865      11.354      10.824      10.227      9.5863    
  8.9545      8.4232      8.1106      8.1086      8.4210      8.9563      9.5886      10.222      10.811      11.347    
  11.882      12.538      13.442      14.646      16.099      17.666      19.161      20.354      21.020      21.022    
  20.374      19.211      17.727      16.125      12.553      11.884      11.398      11.005      10.621      10.202    
  9.7396      9.2470      8.7746      8.4210      8.2884      8.4210      8.7746      9.2470      9.7396      10.202    
  10.621      11.005      11.398      11.884      12.553      13.442      14.488      15.552      16.469      17.088    
  17.307      17.088      16.469      15.553      14.488      13.442      11.395      11.040      10.724      10.418    
  10.130      9.8549      9.5648      9.2485      8.9545      8.7748      8.7768      8.9563      9.2470      9.5664    
  9.8642      10.135      10.398      10.678      10.994      11.379      11.884      12.538      13.293      14.020    
  14.582      14.885      14.890      14.586      14.004      13.251      12.490      11.859      10.657      10.374    
  10.159      10.026      9.9476      9.8644      9.7397      9.5886      9.4632      9.4147      9.4632      9.5886    
  9.7396      9.8642      9.9473      10.026      10.159      10.374      10.657      10.994      11.398      11.882    
  12.408      12.885      13.212      13.327      13.212      12.885      12.408      11.882      11.398      10.994    
  10.110      9.9254      9.9002      10.001      10.130      10.209      10.228      10.221      10.218      10.219    
  10.222      10.222      10.202      10.135      10.026      9.9408      9.9613      10.117      10.374      10.678    
  11.005      11.347      11.678      11.950      12.107      12.107      11.947      11.673      11.354      11.038    
  10.723      10.402      9.8837      9.9616      10.159      10.398      10.621      10.811      10.968      11.078    
  11.119      11.078      10.968      10.811      10.621      10.398      10.159      9.9613      9.8834      9.9613    
  10.159      10.398      10.621      10.811      10.968      11.078      11.119      11.078      10.968      10.811    
  10.621      10.398      10.159      9.9616      10.110      10.402      10.723      11.038      11.354      11.673    
  11.947      12.107      12.107      11.950      11.678      11.347      11.005      10.678      10.374      10.117    
  9.9613      9.9408      10.026      10.135      10.202      10.222      10.222      10.219      10.218      10.221    
  10.228      10.209      10.130      10.001      9.9002      9.9254      10.657      10.994      11.398      11.882    
  12.408      12.885      13.212      13.327      13.212      12.885      12.408      11.882      11.398      10.994    
  10.657      10.374      10.159      10.026      9.9473      9.8642      9.7396      9.5886      9.4632      9.4147    
  9.4632      9.5886      9.7397      9.8644      9.9476      10.026      10.159      10.374      11.395      11.859    
  12.490      13.251      14.004      14.586      14.890      14.885      14.582      14.020      13.293      12.538    
  11.884      11.379      10.994      10.678      10.398      10.135      9.8642      9.5664      9.2470      8.9563    
  8.7768      8.7748      8.9545      9.2485      9.5648      9.8549      10.130      10.418      10.724      11.040    
  12.553      13.442      14.488      15.553      16.469      17.088      17.307      17.088      16.469      15.552    
  14.488      13.442      12.553      11.884      11.398      11.005      10.621      10.202      9.7396      9.2470    
  8.7746      8.4210      8.2884      8.4210      8.7746      9.2470      9.7396      10.202      10.621      11.005    
  11.398      11.884      14.619      16.125      17.727      19.211      20.374      21.022      21.020      20.354    
  19.161      17.666      16.099      14.646      13.442      12.538      11.882      11.347      10.811      10.222    
  9.5886      8.9563      8.4210      8.1086      8.1106      8.4232      8.9545      9.5863      10.227      10.824    
  11.354      11.865      12.490      13.384      18.124      20.449      22.848      25.015      26.586      27.167    
  26.586      25.015      22.848      20.449      18.124      16.099      14.488      13.293      12.408      11.678    
  10.968      10.222      9.4632      8.7768      8.2884      8.1106      8.2885      8.7768      9.4632      10.222    
  10.968      11.678      12.408      13.293      14.488      16.099      23.843      27.621      31.616      35.095    
  37.155      37.182      35.164      31.689      27.654      23.815      20.449      17.666      15.552      14.020    
  12.885      11.950      11.078      10.219      9.4147      8.7748      8.4210      8.4232      8.7768      9.4121    
  10.218      11.081      11.947      12.867      14.004      15.570      17.727      20.517      33.853      40.905    
  47.512      52.203      53.896      52.203      47.512      40.906      33.853      27.654      22.848      19.161    
  16.469      14.582      13.212      12.107      11.119      10.218      9.4632      8.9545      8.7746      8.9545    
  9.4632      10.218      11.119      12.107      13.212      14.582      16.469      19.161      22.848      27.654    
  51.795      62.592      71.078      75.674      75.632      70.989      62.533      51.816      40.906      31.689    
  25.015      20.354      17.088      14.885      13.327      12.107      11.078      10.221      9.5886      9.2485    
  9.2470      9.5863      10.222      11.081      12.107      13.324      14.890      17.110      20.374      24.994    
  31.616      40.826      77.807      90.687      99.153      102.09      99.153      90.687      77.808      62.533    
  47.512      35.164      26.586      21.020      17.307      14.890      13.212      11.947      10.968      10.228    
  9.7397      9.5648      9.7396      10.227      10.968      11.947      13.212      14.890      17.307      21.019    
  26.586      35.164      47.512      62.533      108.25      121.33      128.33      128.33      121.35      108.26    
  90.687      70.989      52.203      37.182      27.167      21.022      17.088      14.586      12.885      11.673    
  10.811      10.209      9.8644      9.8549      10.202      10.824      11.678      12.867      14.582      17.110    
  21.019      27.118      37.155      52.257      71.078      90.728      139.93      152.69      157.30      152.69    
  139.93      121.35      99.153      75.632      53.896      37.155      26.586      20.374      16.469      14.004    
  12.408      11.354      10.621      10.130      9.9476      10.130      10.621      11.354      12.408      14.004    
  16.469      20.374      26.586      37.155      53.896      75.632      99.153      121.34      172.74      184.67    
  184.76      172.88      152.69      128.33      102.09      75.674      52.203      35.095      25.015      19.211    
  15.553      13.251      11.882      11.038      10.398      10.001      10.026      10.418      11.005      11.865    
  13.293      15.570      19.161      24.994      35.164      52.257      75.632      102.03      128.33      152.64    
  205.99      214.19      205.99      184.76      157.30      128.33      99.153      71.078      47.512      31.616    
  22.848      17.727      14.488      12.490      11.398      10.723      10.159      9.9002      10.159      10.724    
  11.398      12.490      14.488      17.727      22.848      31.616      47.512      71.078      99.153      128.33    
  157.30      184.76      233.18      233.02      214.19      184.67      152.69      121.33      90.687      62.592    
  40.905      27.621      20.449      16.125      13.442      11.859      10.994      10.402      9.9616      9.9254    
  10.374      11.040      11.884      13.384      16.099      20.517      27.654      40.826      62.533      90.728    
  121.34      152.64      184.76      214.45      233.18      214.45      184.76      152.64      121.34      90.728    
  62.533      40.826      27.654      20.517      16.099      13.384      11.884      11.040      10.374      9.9254    
  9.9616      10.402      10.994      11.859      13.442      16.125      20.449      27.621      40.905      62.592    
  90.687      121.33      152.69      184.67      214.19      233.02      214.45      191.26      161.76      131.47    
  101.67      73.132      48.974      32.493      23.378      18.102      14.764      12.712      11.603      10.923    
  10.343      10.073      10.341      10.923      11.606      12.713      14.763      18.102      23.379      32.489    
  48.984      73.194      101.77      131.50      161.58      190.90      214.15      223.35      184.76      161.76    
  135.13      107.46      80.049      55.523      37.227      26.212      20.002      16.188      13.777      12.286    
  11.404      10.796      10.377      10.348      10.773      11.441      12.307      13.731      16.167      20.059    
  26.235      37.159      55.499      80.155      107.54      135.05      161.60      184.68      198.75      198.76    
  152.64      131.47      107.46      82.504      59.132      40.598      28.633      21.747      17.469      14.784    
  13.066      11.954      11.183      10.652      10.447      10.648      11.183      11.958      13.066      14.780    
  17.471      21.753      28.625      40.570      59.107      82.517      107.52      131.54      152.70      168.02    
  173.74      168.00      121.34      101.67      80.049      59.132      41.826      29.988      22.937      18.509    
  15.668      13.767      12.475      11.557      10.872      10.476      10.488      10.880      11.541      12.469    
  13.789      15.674      18.482      22.927      30.014      41.834      59.106      80.055      101.73      121.36    
  136.58      145.08      145.12      136.64      90.728      73.132      55.523      40.598      29.988      23.339    
  19.036      16.262      14.350      12.926      11.840      11.011      10.441      10.229      10.442      11.012    
  11.840      12.927      14.350      16.259      19.037      23.354      30.015      40.613      55.498      73.072    
  90.672      105.56      115.47      118.95      115.47      105.58      62.533      48.974      37.227      28.633    
  22.937      19.036      16.448      14.653      13.254      12.067      11.066      10.307      9.8854      9.8835    
  10.306      11.070      12.067      13.248      14.653      16.455      19.038      22.927      28.626      37.234    
  48.982      62.534      75.612      85.844      91.419      91.404      85.818      75.601      40.826      32.493    
  26.212      21.747      18.509      16.262      14.653      13.362      12.192      11.093      10.145      9.4923    
  9.2596      9.4927      10.145      11.092      12.193      13.365      14.653      16.248      18.482      21.729    
  26.235      32.564      40.904      50.253      58.851      64.892      67.082      64.936      58.882      50.223    
  27.654      23.378      20.002      17.469      15.668      14.350      13.254      12.192      11.097      10.038    
  9.1795      8.6958      8.6948      9.1781      10.038      11.099      12.192      13.253      14.350      15.669    
  17.470      20.002      23.378      27.654      32.917      38.540      43.341      46.112      46.110      43.338    
  38.538      32.917      20.517      18.102      16.188      14.784      13.767      12.926      12.067      11.093    
  10.038      9.0583      8.3569      8.1008      8.3555      9.0579      10.039      11.092      12.067      12.936    
  13.790      14.799      16.167      18.040      20.449      23.266      26.306      29.248      31.442      32.245    
  31.398      29.189      26.278      23.294      16.099      14.764      13.777      13.066      12.475      11.840    
  11.066      10.145      9.1795      8.3569      7.8789      7.8783      8.3559      9.1790      10.145      11.066    
  11.841      12.476      13.067      13.777      14.764      16.099      17.743      19.565      21.349      22.811    
  23.650      23.651      22.813      21.350      19.564      17.743      13.384      12.712      12.286      11.954    
  11.557      11.011      10.307      9.4923      8.6958      8.1008      7.8783      8.0995      8.6950      9.4930    
  10.306      11.003      11.542      11.946      12.306      12.765      13.442      14.368      15.471      16.613    
  17.624      18.330      18.587      18.346      17.661      16.659      15.494      14.344      11.884      11.603    
  11.404      11.183      10.872      10.441      9.8854      9.2596      8.6948      8.3555      8.3559      8.6950    
  9.2587      9.8847      10.441      10.872      11.183      11.404      11.605      11.884      12.330      12.961    
  13.703      14.423      14.983      15.288      15.289      14.984      14.422      13.703      12.963      12.332    
  11.040      10.923      10.796      10.652      10.476      10.229      9.8835      9.4927      9.1781      9.0579    
  9.1790      9.4930      9.8847      10.236      10.488      10.655      10.773      10.876      10.994      11.174    
  11.468      11.894      12.391      12.845      13.152      13.260      13.152      12.834      12.363      11.857    
  11.447      11.189      10.374      10.343      10.377      10.447      10.488      10.442      10.306      10.145    
  10.038      10.039      10.145      10.306      10.441      10.488      10.448      10.377      10.342      10.374    
  10.461      10.599      10.807      11.090      11.405      11.675      11.827      11.827      11.675      11.406    
  11.091      10.807      10.598      10.459      9.9254      10.073      10.348      10.648      10.880      11.012    
  11.070      11.092      11.099      11.092      11.066      11.003      10.872      10.655      10.377      10.118    
  9.9619      9.9338      9.9995      10.115      10.260      10.430      10.602      10.735      10.786      10.735    
  10.602      10.436      10.281      10.148      10.024      9.9279      9.9616      10.341      10.773      11.183    
  11.541      11.840      12.067      12.193      12.192      12.067      11.841      11.542      11.183      10.773    
  10.342      9.9619      9.7089      9.6123      9.6316      9.6965      9.7631      9.8246      9.8814      9.9182    
  9.9175      9.8806      9.8252      9.7635      9.6956      9.6311      9.6140      9.7107      10.402      10.923    
  11.441      11.958      12.469      12.927      13.248      13.365      13.253      12.936      12.476      11.946    
  11.404      10.876      10.374      9.9338      9.6123      9.4357      9.3668      9.3341      9.2923      9.2445    
  9.2114      9.2004      9.2109      9.2449      9.2939      9.3319      9.3517      9.4053      9.5820      9.9279    
  10.994      11.606      12.307      13.066      13.789      14.350      14.653      14.653      14.350      13.790    
  13.067      12.306      11.605      10.994      10.461      9.9995      9.6316      9.3668      9.1757      9.0099    
  8.8466      8.7044      8.6203      8.6204      8.7045      8.8464      9.0097      9.1760      9.3678      9.6323    
  9.9990      10.459      11.859      12.713      13.731      14.780      15.674      16.259      16.455      16.248    
  15.669      14.799      13.777      12.765      11.884      11.174      10.599      10.115      9.6965      9.3341    
  9.0099      8.7084      8.4395      8.2431      8.1684      8.2411      8.4397      8.7096      9.0067      9.3302    
  9.7075      10.148      10.639      11.189      13.442      14.763      16.167      17.471      18.482      19.037    
  19.038      18.482      17.470      16.167      14.764      13.442      12.330      11.468      10.807      10.260    
  9.7631      9.2923      8.8466      8.4395      8.1100      7.9202      7.9208      8.1105      8.4387      8.8457    
  9.2927      9.7633      10.259      10.807      11.470      12.332      16.125      18.102      20.059      21.753    
  22.927      23.354      22.927      21.729      20.002      18.040      16.099      14.368      12.961      11.894    
  11.090      10.430      9.8246      9.2445      8.7044      8.2431      7.9202      7.8026      7.9208      8.2430    
  8.7029      9.2447      9.8305      10.437      11.081      11.857      12.912      14.344      20.449      23.379    
  26.235      28.625      30.014      30.015      28.626      26.235      23.378      20.449      17.743      15.471    
  13.703      12.391      11.405      10.602      9.8814      9.2114      8.6203      8.1684      7.9208      7.9208    
  8.1682      8.6197      9.2109      9.8815      10.602      11.406      12.392      13.705      15.471      17.743    
  27.621      32.489      37.159      40.570      41.834      40.613      37.234      32.564      27.654      23.266    
  19.565      16.613      14.423      12.845      11.675      10.735      9.9182      9.2004      8.6204      8.2411    
  8.1105      8.2430      8.6197      9.1978      9.9189      10.736      11.667      12.833      14.432      16.660    
  19.626      23.294      40.905      48.984      55.499      59.107      59.106      55.498      48.982      40.904    
  32.917      26.306      21.349      17.624      14.983      13.152      11.827      10.786      9.9175      9.2109    
  8.7045      8.4397      8.4387      8.7029      9.2109      9.9189      10.786      11.827      13.152      14.984    
  17.626      21.349      26.305      32.917      62.592      73.194      80.155      82.517      80.055      73.072    
  62.534      50.253      38.540      29.248      22.811      18.330      15.288      13.260      11.827      10.735    
  9.8806      9.2449      8.8464      8.7096      8.8457      9.2447      9.8815      10.736      11.827      13.263    
  15.300      18.342      22.799      29.193      38.468      50.223      90.687      101.77      107.54      107.52    
  101.73      90.672      75.612      58.851      43.341      31.442      23.650      18.587      15.289      13.152    
  11.675      10.602      9.8252      9.2939      9.0097      9.0067      9.2927      9.8305      10.602      11.667    
  13.152      15.300      18.588      23.636      31.437      43.352      58.853      75.601      121.33      131.50    
  135.05      131.54      121.36      105.56      85.844      64.892      46.112      32.245      23.651      18.346    
  14.984      12.834      11.406      10.436      9.7635      9.3319      9.1760      9.3302      9.7633      10.437    
  11.406      12.833      14.984      18.342      23.636      32.230      46.125      64.946      85.909      105.58    
  152.69      161.58      161.60      152.70      136.58      115.47      91.419      67.082      46.110      31.398    
  22.813      17.661      14.422      12.363      11.091      10.281      9.6956      9.3517      9.3678      9.7075    
  10.259      11.081      12.392      14.432      17.626      22.799      31.437      46.125      67.030      91.390    
  115.53      136.64      184.67      190.90      184.68      168.02      145.08      118.95      91.404      64.936    
  43.338      29.189      21.350      16.659      13.703      11.857      10.807      10.148      9.6311      9.4053    
  9.6323      10.148      10.807      11.857      13.705      16.660      21.349      29.193      43.352      64.946    
  91.390      118.91      145.03      168.00      214.19      214.15      198.75      173.74      145.12      115.47    
  85.818      58.882      38.538      26.278      19.564      15.494      12.963      11.447      10.598      10.024    
  9.6140      9.5820      9.9990      10.639      11.470      12.912      15.471      19.626      26.305      38.468    
  58.853      85.909      115.53      145.03      173.63      198.76      233.02      223.35      198.76      168.00    
  136.64      105.58      75.601      50.223      32.917      23.294      17.743      14.344      12.332      11.189    
  10.459      9.9279      9.7107      9.9279      10.459      11.189      12.332      14.344      17.743      23.294    
  32.917      50.223      75.601      105.58      136.64      168.00      198.76      223.35      205.99      184.76    
  157.30      128.33      99.153      71.078      47.512      31.616      22.848      17.727      14.488      12.490    
  11.398      10.724      10.159      9.9002      10.159      10.723      11.398      12.490      14.488      17.727    
  22.848      31.616      47.512      71.078      99.153      128.33      157.30      184.76      205.99      214.19    
  184.76      161.76      135.13      107.46      80.049      55.523      37.227      26.212      20.002      16.188    
  13.777      12.286      11.404      10.796      10.377      10.348      10.773      11.441      12.307      13.731    
  16.167      20.059      26.235      37.159      55.499      80.155      107.54      135.05      161.60      184.68    
  198.75      198.76      157.30      135.13      110.38      84.867      60.921      41.792      29.360      22.239    
  17.824      15.055      13.297      12.166      11.379      10.831      10.621      10.831      11.379      12.166    
  13.297      15.055      17.824      22.239      29.360      41.792      60.921      84.867      110.38      135.13    
  157.30      173.63      179.79      173.63      128.33      107.46      84.867      62.911      44.434      31.585    
  23.981      19.278      16.258      14.248      12.901      11.951      11.229      10.803      10.818      11.239    
  11.931      12.892      14.275      16.268      19.247      23.972      31.619      44.426      62.826      84.819    
  107.54      128.47      145.12      154.59      154.57      145.03      99.153      80.049      60.921      44.434    
  32.449      24.954      20.217      17.177      15.102      13.568      12.409      11.518      10.889      10.651    
  10.889      11.518      12.409      13.568      15.102      17.177      20.217      24.954      32.449      44.434    
  60.921      80.049      99.153      115.53      126.69      130.67      126.69      115.53      71.078      55.523    
  41.792      31.585      24.954      20.559      17.651      15.652      14.103      12.791      11.673      10.809    
  10.322      10.320      10.809      11.677      12.790      14.096      15.651      17.657      20.562      24.962    
  31.620      41.827      55.499      70.988      85.818      97.446      103.82      103.83      97.484      85.909    
  47.512      37.227      29.360      23.981      20.217      17.651      15.842      14.383      13.041      11.759    
  10.637      9.8532      9.5708      9.8532      10.637      11.759      13.041      14.383      15.842      17.651    
  20.217      23.981      29.360      37.227      47.512      58.852      69.158      76.342      78.915      76.342    
  69.158      58.853      31.616      26.212      22.239      19.278      17.177      15.652      14.383      13.129    
  11.793      10.475      9.3969      8.7876      8.7863      9.3954      10.476      11.795      13.129      14.384    
  15.651      17.162      19.247      22.217      26.235      31.686      38.538      45.802      51.938      55.467    
  55.483      51.958      45.778      38.468      22.848      20.002      17.824      16.258      15.102      14.103    
  13.041      11.793      10.412      9.1150      8.1845      7.8462      8.1845      9.1150      10.412      11.793    
  13.041      14.103      15.102      16.258      17.824      20.002      22.848      26.305      30.311      34.272    
  37.231      38.330      37.231      34.272      30.310      26.305      17.727      16.188      15.055      14.248    
  13.568      12.791      11.759      10.475      9.1150      7.9597      7.2914      7.2900      7.9582      9.1162    
  10.476      11.756      12.790      13.582      14.275      15.072      16.166      17.668      19.564      21.719    
  23.888      25.751      26.848      26.829      25.712      23.868      21.745      19.626      14.488      13.777    
  13.297      12.901      12.409      11.673      10.637      9.3969      8.1845      7.2914      6.9618      7.2914    
  8.1846      9.3969      10.637      11.673      12.409      12.901      13.297      13.777      14.488      15.471    
  16.669      17.951      19.130      19.979      20.290      19.979      19.130      17.951      16.669      15.471    
  12.490      12.286      12.166      11.951      11.518      10.809      9.8532      8.7876      7.8462      7.2900    
  7.2914      7.8473      8.7863      9.8528      10.809      11.509      11.931      12.154      12.307      12.542    
  12.963      13.582      14.321      15.055      15.645      15.977      15.986      15.669      15.084      14.336    
  13.562      12.912      11.398      11.404      11.379      11.229      10.889      10.322      9.5708      8.7863    
  8.1845      7.9582      8.1846      8.7863      9.5708      10.322      10.889      11.229      11.379      11.404    