AuAl2                                   
   6.50000000000000     
     0.000000    0.458506    0.458506
     0.458506    0.000000    0.458506
     0.458506    0.458506    0.000000
   Au   Al
     1     2
Direct
  0.000000  0.000000  0.000000
  0.250000  0.250000  0.250000
  0.750000  0.750000  0.750000
 
   32   32   32
 0.24397323586E+03 0.23318029497E+03 0.20599272982E+03 0.17274219666E+03 0.13993183002E+03
 0.10824862559E+03 0.77807409010E+02 0.51794766022E+02 0.33852876973E+02 0.23843221785E+02
 0.18124063127E+02 0.14618617498E+02 0.12553142254E+02 0.11394595291E+02 0.10657105936E+02
 0.10110215089E+02 0.98836746089E+01 0.10110215089E+02 0.10657105936E+02 0.11394595291E+02
 0.12553142254E+02 0.14618617498E+02 0.18124063127E+02 0.23843221785E+02 0.33852876973E+02
 0.51794766022E+02 0.77807409010E+02 0.10824862559E+03 0.13993183002E+03 0.17274219666E+03
 0.20599272982E+03 0.23318029497E+03 0.23318029497E+03 0.21445432448E+03 0.18475649141E+03
 0.15264380680E+03 0.12134466809E+03 0.90728406293E+02 0.62533328154E+02 0.40825817224E+02
 0.27653903005E+02 0.20517489832E+02 0.16098670650E+02 0.13383610446E+02 0.11883725404E+02
 0.11040209932E+02 0.10373595911E+02 0.99254432531E+01 0.99615627461E+01 0.10402437128E+02
 0.10994234162E+02 0.11858899993E+02 0.13441766241E+02 0.16125269083E+02 0.20448626867E+02
 0.27621257872E+02 0.40905493014E+02 0.62591743871E+02 0.90686523109E+02 0.12132776502E+03
 0.15268959393E+03 0.18467376695E+03 0.21418970117E+03 0.23302193065E+03 0.20599272982E+03
 0.18475649141E+03 0.15730171957E+03 0.12832579596E+03 0.99152778944E+02 0.71078155359E+02
 0.47511994534E+02 0.31616422444E+02 0.22847812878E+02 0.17726500204E+02 0.14488072841E+02
 0.12489841088E+02 0.11398207174E+02 0.10723508033E+02 0.10158666294E+02 0.99002143951E+01
 0.10158623459E+02 0.10723468225E+02 0.11398221280E+02 0.12489918004E+02 0.14488165922E+02
 0.17726539958E+02 0.22847759471E+02 0.31616297331E+02 0.47511866413E+02 0.71078094989E+02
 0.99152814272E+02 0.12832590424E+03 0.15730184907E+03 0.18475659595E+03 0.20599278559E+03
 0.21418970117E+03 0.17274219666E+03 0.15264380680E+03 0.12832579596E+03 0.10203306559E+03
 0.75632276854E+02 0.52256721698E+02 0.35163613016E+02 0.24994477329E+02 0.19160618882E+02
 0.15570494841E+02 0.13292759284E+02 0.11865158580E+02 0.11005113841E+02 0.10417702125E+02
 0.10026012019E+02 0.10000794595E+02 0.10397773693E+02 0.11037549684E+02 0.11882071492E+02
 0.13251052669E+02 0.15552527779E+02 0.19211384189E+02 0.25015150240E+02 0.35094709310E+02
 0.52202806786E+02 0.75673950597E+02 0.10208775427E+03 0.12833040837E+03 0.15269006832E+03
 0.17287809173E+03 0.18475659595E+03 0.18467376695E+03 0.13993183002E+03 0.12134466809E+03
 0.99152778944E+02 0.75632276854E+02 0.53896174257E+02 0.37154629632E+02 0.26585673952E+02
 0.20373507010E+02 0.16468633190E+02 0.14004330589E+02 0.12408367262E+02 0.11354174394E+02
 0.10620900763E+02 0.10130037265E+02 0.99475829155E+01 0.10130088685E+02 0.10620943481E+02
 0.11354154606E+02 0.12408300895E+02 0.14004294017E+02 0.16468682735E+02 0.20373605966E+02
 0.26585708104E+02 0.37154515722E+02 0.53895968326E+02 0.75632176023E+02 0.99152987495E+02
 0.12134521953E+03 0.13993251605E+03 0.15269006832E+03 0.15730184907E+03 0.15268959393E+03
 0.10824862559E+03 0.90728406293E+02 0.71078155359E+02 0.52256721698E+02 0.37154629632E+02
 0.27117564444E+02 0.21019447703E+02 0.17109975096E+02 0.14581621131E+02 0.12866830819E+02
 0.11677844432E+02 0.10824245579E+02 0.10202130503E+02 0.98549354921E+01 0.98644286937E+01
 0.10208917549E+02 0.10811214486E+02 0.11673026605E+02 0.12884681096E+02 0.14586056033E+02
 0.17088025745E+02 0.21021961657E+02 0.27166777780E+02 0.37182188445E+02 0.52202811596E+02
 0.70989301716E+02 0.90686743600E+02 0.10825995631E+03 0.12134521953E+03 0.12833040837E+03
 0.12832590424E+03 0.12132776502E+03 0.77807409010E+02 0.62533328154E+02 0.47511994534E+02
 0.35163613016E+02 0.26585673952E+02 0.21019447703E+02 0.17306831418E+02 0.14890082586E+02
 0.13211925936E+02 0.11947483620E+02 0.10967836604E+02 0.10227426082E+02 0.97396023782E+01
 0.95648136733E+01 0.97396985932E+01 0.10227532215E+02 0.10967862584E+02 0.11947424553E+02
 0.13211872009E+02 0.14890139810E+02 0.17307020912E+02 0.21019678585E+02 0.26585815385E+02
 0.35163608010E+02 0.47511912878E+02 0.62533305487E+02 0.77807531377E+02 0.90686743600E+02
 0.99152987495E+02 0.10208775427E+03 0.99152814272E+02 0.90686523109E+02 0.51794766022E+02
 0.40825817224E+02 0.31616422444E+02 0.24994477329E+02 0.20373507010E+02 0.17109975096E+02
 0.14890082586E+02 0.13323865602E+02 0.12107180293E+02 0.11081225324E+02 0.10222118198E+02
 0.95862609965E+01 0.92470036716E+01 0.92485239728E+01 0.95885943451E+01 0.10221420762E+02
 0.11078069301E+02 0.12107149904E+02 0.13327253267E+02 0.14884966108E+02 0.17087984695E+02
 0.20353867354E+02 0.25015335655E+02 0.31688933193E+02 0.40905616681E+02 0.51816031618E+02
 0.62533305487E+02 0.70989301716E+02 0.75632176023E+02 0.75673950597E+02 0.71078094989E+02
 0.62591743871E+02 0.33852876973E+02 0.27653903005E+02 0.22847812878E+02 0.19160618882E+02
 0.16468633190E+02 0.14581621131E+02 0.13211925936E+02 0.12107180293E+02 0.11118750038E+02
 0.10217684179E+02 0.94632039390E+01 0.89545219945E+01 0.87746389474E+01 0.89545049385E+01
 0.94631794388E+01 0.10217656947E+02 0.11118708457E+02 0.12107104325E+02 0.13211811702E+02
 0.14581500268E+02 0.16468566521E+02 0.19160657498E+02 0.22847964946E+02 0.27654114888E+02
 0.33853072384E+02 0.40905616681E+02 0.47511912878E+02 0.52202811596E+02 0.53895968326E+02
 0.52202806786E+02 0.47511866413E+02 0.40905493014E+02 0.23843221785E+02 0.20517489832E+02
 0.17726500204E+02 0.15570494841E+02 0.14004330589E+02 0.12866830819E+02 0.11947483620E+02
 0.11081225324E+02 0.10217684179E+02 0.94121049963E+01 0.87768389301E+01 0.84232244716E+01
 0.84209637180E+01 0.87748401564E+01 0.94147449974E+01 0.10219264520E+02 0.11078088627E+02
 0.11950305783E+02 0.12884608112E+02 0.14020284284E+02 0.15552311408E+02 0.17665938806E+02
 0.20448774437E+02 0.23814993905E+02 0.27654114888E+02 0.31688933193E+02 0.35163608010E+02
 0.37182188445E+02 0.37154515722E+02 0.35094709310E+02 0.31616297331E+02 0.27621257872E+02
 0.18124063127E+02 0.16098670650E+02 0.14488072841E+02 0.13292759284E+02 0.12408367262E+02
 0.11677844432E+02 0.10967836604E+02 0.10222118198E+02 0.94632039390E+01 0.87768389301E+01
 0.82885028543E+01 0.81105875539E+01 0.82884462718E+01 0.87767805740E+01 0.94632060425E+01
 0.10222194177E+02 0.10967933414E+02 0.11677878062E+02 0.12408285029E+02 0.13292580434E+02
 0.14487881820E+02 0.16098562500E+02 0.18124088961E+02 0.20448774437E+02 0.22847964946E+02
 0.25015335655E+02 0.26585815385E+02 0.27166777780E+02 0.26585708104E+02 0.25015150240E+02
 0.22847759471E+02 0.20448626867E+02 0.14618617498E+02 0.13383610446E+02 0.12489841088E+02
 0.11865158580E+02 0.11354174394E+02 0.10824245579E+02 0.10227426082E+02 0.95862609965E+01
 0.89545219945E+01 0.84232244716E+01 0.81105875539E+01 0.81086380937E+01 0.84209501254E+01
 0.89562940441E+01 0.95885972714E+01 0.10222370306E+02 0.10811355007E+02 0.11346650375E+02
 0.11882165064E+02 0.12537966423E+02 0.13441508628E+02 0.14645948809E+02 0.16098562500E+02
 0.17665938806E+02 0.19160657498E+02 0.20353867354E+02 0.21019678585E+02 0.21021961657E+02
 0.20373605966E+02 0.19211384189E+02 0.17726539958E+02 0.16125269083E+02 0.12553142254E+02
 0.11883725404E+02 0.11398207174E+02 0.11005113841E+02 0.10620900763E+02 0.10202130503E+02
 0.97396023782E+01 0.92470036716E+01 0.87746389474E+01 0.84209637180E+01 0.82884462718E+01
 0.84209501254E+01 0.87746107676E+01 0.92469758958E+01 0.97396162249E+01 0.10202235257E+02
 0.10621112235E+02 0.11005380926E+02 0.11398425696E+02 0.11883791974E+02 0.12553019630E+02
 0.13441508628E+02 0.14487881820E+02 0.15552311408E+02 0.16468566521E+02 0.17087984695E+02
 0.17307020912E+02 0.17088025745E+02 0.16468682735E+02 0.15552527779E+02 0.14488165922E+02
 0.13441766241E+02 0.11394595291E+02 0.11040209932E+02 0.10723508033E+02 0.10417702125E+02
 0.10130037265E+02 0.98549354921E+01 0.95648136733E+01 0.92485239728E+01 0.89545049385E+01
 0.87748401564E+01 0.87767805740E+01 0.89562940441E+01 0.92469758958E+01 0.95664147677E+01
 0.98642389555E+01 0.10134624654E+02 0.10397874793E+02 0.10678136849E+02 0.10994488901E+02
 0.11379135326E+02 0.11883791974E+02 0.12537966423E+02 0.13292580434E+02 0.14020284284E+02
 0.14581500268E+02 0.14884966108E+02 0.14890139810E+02 0.14586056033E+02 0.14004294017E+02
 0.13251052669E+02 0.12489918004E+02 0.11858899993E+02 0.10657105936E+02 0.10373595911E+02
 0.10158666294E+02 0.10026012019E+02 0.99475829155E+01 0.98644286937E+01 0.97396985932E+01
 0.95885943451E+01 0.94631794388E+01 0.94147449974E+01 0.94632060425E+01 0.95885972714E+01
 0.97396162249E+01 0.98642389555E+01 0.99473303381E+01 0.10025790359E+02 0.10158570413E+02
 0.10373667830E+02 0.10657313175E+02 0.10994488901E+02 0.11398425696E+02 0.11882165064E+02
 0.12408285029E+02 0.12884608112E+02 0.13211811702E+02 0.13327253267E+02 0.13211872009E+02
 0.12884681096E+02 0.12408300895E+02 0.11882071492E+02 0.11398221280E+02 0.10994234162E+02
 0.10110215089E+02 0.99254432531E+01 0.99002143951E+01 0.10000794595E+02 0.10130088685E+02
 0.10208917549E+02 0.10227532215E+02 0.10221420762E+02 0.10217656947E+02 0.10219264520E+02
 0.10222194177E+02 0.10222370306E+02 0.10202235257E+02 0.10134624654E+02 0.10025790359E+02
 0.99407838910E+01 0.99613485095E+01 0.10117478301E+02 0.10373667830E+02 0.10678136849E+02
 0.11005380926E+02 0.11346650375E+02 0.11677878062E+02 0.11950305783E+02 0.12107104325E+02
 0.12107149904E+02 0.11947424553E+02 0.11673026605E+02 0.11354154606E+02 0.11037549684E+02
 0.10723468225E+02 0.10402437128E+02 0.98836746089E+01 0.99615627461E+01 0.10158623459E+02
 0.10397773693E+02 0.10620943481E+02 0.10811214486E+02 0.10967862584E+02 0.11078069301E+02
 0.11118708457E+02 0.11078088627E+02 0.10967933414E+02 0.10811355007E+02 0.10621112235E+02
 0.10397874793E+02 0.10158570413E+02 0.99613485095E+01 0.98833916319E+01 0.99613485095E+01
 0.10158570413E+02 0.10397874793E+02 0.10621112235E+02 0.10811355007E+02 0.10967933414E+02
 0.11078088627E+02 0.11118708457E+02 0.11078069301E+02 0.10967862584E+02 0.10811214486E+02
 0.10620943481E+02 0.10397773693E+02 0.10158623459E+02 0.99615627461E+01 0.10110215089E+02
 0.10402437128E+02 0.10723468225E+02 0.11037549684E+02 0.11354154606E+02 0.11673026605E+02
 0.11947424553E+02 0.12107149904E+02 0.12107104325E+02 0.11950305783E+02 0.11677878062E+02
 0.11346650375E+02 0.11005380926E+02 0.10678136849E+02 0.10373667830E+02 0.10117478301E+02
 0.99613485095E+01 0.99407838910E+01 0.10025790359E+02 0.10134624654E+02 0.10202235257E+02
 0.10222370306E+02 0.10222194177E+02 0.10219264520E+02 0.10217656947E+02 0.10221420762E+02
 0.10227532215E+02 0.10208917549E+02 0.10130088685E+02 0.10000794595E+02 0.99002143951E+01
 0.99254432531E+01 0.10657105936E+02 0.10994234162E+02 0.11398221280E+02 0.11882071492E+02
 0.12408300895E+02 0.12884681096E+02 0.13211872009E+02 0.13327253267E+02 0.13211811702E+02
 0.12884608112E+02 0.12408285029E+02 0.11882165064E+02 0.11398425696E+02 0.10994488901E+02
 0.10657313175E+02 0.10373667830E+02 0.10158570413E+02 0.10025790359E+02 0.99473303381E+01
 0.98642389555E+01 0.97396162249E+01 0.95885972714E+01 0.94632060425E+01 0.94147449974E+01
 0.94631794388E+01 0.95885943451E+01 0.97396985932E+01 0.98644286937E+01 0.99475829155E+01
 0.10026012019E+02 0.10158666294E+02 0.10373595911E+02 0.11394595291E+02 0.11858899993E+02
 0.12489918004E+02 0.13251052669E+02 0.14004294017E+02 0.14586056033E+02 0.14890139810E+02
 0.14884966108E+02 0.14581500268E+02 0.14020284284E+02 0.13292580434E+02 0.12537966423E+02
 0.11883791974E+02 0.11379135326E+02 0.10994488901E+02 0.10678136849E+02 0.10397874793E+02
 0.10134624654E+02 0.98642389555E+01 0.95664147677E+01 0.92469758958E+01 0.89562940441E+01
 0.87767805740E+01 0.87748401564E+01 0.89545049385E+01 0.92485239728E+01 0.95648136733E+01
 0.98549354921E+01 0.10130037265E+02 0.10417702125E+02 0.10723508033E+02 0.11040209932E+02
 0.12553142254E+02 0.13441766241E+02 0.14488165922E+02 0.15552527779E+02 0.16468682735E+02
 0.17088025745E+02 0.17307020912E+02 0.17087984695E+02 0.16468566521E+02 0.15552311408E+02
 0.14487881820E+02 0.13441508628E+02 0.12553019630E+02 0.11883791974E+02 0.11398425696E+02
 0.11005380926E+02 0.10621112235E+02 0.10202235257E+02 0.97396162249E+01 0.92469758958E+01
 0.87746107676E+01 0.84209501254E+01 0.82884462718E+01 0.84209637180E+01 0.87746389474E+01
 0.92470036716E+01 0.97396023782E+01 0.10202130503E+02 0.10620900763E+02 0.11005113841E+02
 0.11398207174E+02 0.11883725404E+02 0.14618617498E+02 0.16125269083E+02 0.17726539958E+02
 0.19211384189E+02 0.20373605966E+02 0.21021961657E+02 0.21019678585E+02 0.20353867354E+02
 0.19160657498E+02 0.17665938806E+02 0.16098562500E+02 0.14645948809E+02 0.13441508628E+02
 0.12537966423E+02 0.11882165064E+02 0.11346650375E+02 0.10811355007E+02 0.10222370306E+02
 0.95885972714E+01 0.89562940441E+01 0.84209501254E+01 0.81086380937E+01 0.81105875539E+01
 0.84232244716E+01 0.89545219945E+01 0.95862609965E+01 0.10227426082E+02 0.10824245579E+02
 0.11354174394E+02 0.11865158580E+02 0.12489841088E+02 0.13383610446E+02 0.18124063127E+02
 0.20448626867E+02 0.22847759471E+02 0.25015150240E+02 0.26585708104E+02 0.27166777780E+02
 0.26585815385E+02 0.25015335655E+02 0.22847964946E+02 0.20448774437E+02 0.18124088961E+02
 0.16098562500E+02 0.14487881820E+02 0.13292580434E+02 0.12408285029E+02 0.11677878062E+02
 0.10967933414E+02 0.10222194177E+02 0.94632060425E+01 0.87767805740E+01 0.82884462718E+01
 0.81105875539E+01 0.82885028543E+01 0.87768389301E+01 0.94632039390E+01 0.10222118198E+02
 0.10967836604E+02 0.11677844432E+02 0.12408367262E+02 0.13292759284E+02 0.14488072841E+02
 0.16098670650E+02 0.23843221785E+02 0.27621257872E+02 0.31616297331E+02 0.35094709310E+02
 0.37154515722E+02 0.37182188445E+02 0.35163608010E+02 0.31688933193E+02 0.27654114888E+02
 0.23814993905E+02 0.20448774437E+02 0.17665938806E+02 0.15552311408E+02 0.14020284284E+02
 0.12884608112E+02 0.11950305783E+02 0.11078088627E+02 0.10219264520E+02 0.94147449974E+01
 0.87748401564E+01 0.84209637180E+01 0.84232244716E+01 0.87768389301E+01 0.94121049963E+01
 0.10217684179E+02 0.11081225324E+02 0.11947483620E+02 0.12866830819E+02 0.14004330589E+02
 0.15570494841E+02 0.17726500204E+02 0.20517489832E+02 0.33852876973E+02 0.40905493014E+02
 0.47511866413E+02 0.52202806786E+02 0.53895968326E+02 0.52202811596E+02 0.47511912878E+02
 0.40905616681E+02 0.33853072384E+02 0.27654114888E+02 0.22847964946E+02 0.19160657498E+02
 0.16468566521E+02 0.14581500268E+02 0.13211811702E+02 0.12107104325E+02 0.11118708457E+02
 0.10217656947E+02 0.94631794388E+01 0.89545049385E+01 0.87746389474E+01 0.89545219945E+01
 0.94632039390E+01 0.10217684179E+02 0.11118750038E+02 0.12107180293E+02 0.13211925936E+02
 0.14581621131E+02 0.16468633190E+02 0.19160618882E+02 0.22847812878E+02 0.27653903005E+02
 0.51794766022E+02 0.62591743871E+02 0.71078094989E+02 0.75673950597E+02 0.75632176023E+02
 0.70989301716E+02 0.62533305487E+02 0.51816031618E+02 0.40905616681E+02 0.31688933193E+02
 0.25015335655E+02 0.20353867354E+02 0.17087984695E+02 0.14884966108E+02 0.13327253267E+02
 0.12107149904E+02 0.11078069301E+02 0.10221420762E+02 0.95885943451E+01 0.92485239728E+01
 0.92470036716E+01 0.95862609965E+01 0.10222118198E+02 0.11081225324E+02 0.12107180293E+02
 0.13323865602E+02 0.14890082586E+02 0.17109975096E+02 0.20373507010E+02 0.24994477329E+02
 0.31616422444E+02 0.40825817224E+02 0.77807409010E+02 0.90686523109E+02 0.99152814272E+02
 0.10208775427E+03 0.99152987495E+02 0.90686743600E+02 0.77807531377E+02 0.62533305487E+02
 0.47511912878E+02 0.35163608010E+02 0.26585815385E+02 0.21019678585E+02 0.17307020912E+02
 0.14890139810E+02 0.13211872009E+02 0.11947424553E+02 0.10967862584E+02 0.10227532215E+02
 0.97396985932E+01 0.95648136733E+01 0.97396023782E+01 0.10227426082E+02 0.10967836604E+02
 0.11947483620E+02 0.13211925936E+02 0.14890082586E+02 0.17306831418E+02 0.21019447703E+02
 0.26585673952E+02 0.35163613016E+02 0.47511994534E+02 0.62533328154E+02 0.10824862559E+03
 0.12132776502E+03 0.12832590424E+03 0.12833040837E+03 0.12134521953E+03 0.10825995631E+03
 0.90686743600E+02 0.70989301716E+02 0.52202811596E+02 0.37182188445E+02 0.27166777780E+02
 0.21021961657E+02 0.17088025745E+02 0.14586056033E+02 0.12884681096E+02 0.11673026605E+02
 0.10811214486E+02 0.10208917549E+02 0.98644286937E+01 0.98549354921E+01 0.10202130503E+02
 0.10824245579E+02 0.11677844432E+02 0.12866830819E+02 0.14581621131E+02 0.17109975096E+02
 0.21019447703E+02 0.27117564444E+02 0.37154629632E+02 0.52256721698E+02 0.71078155359E+02
 0.90728406293E+02 0.13993183002E+03 0.15268959393E+03 0.15730184907E+03 0.15269006832E+03
 0.13993251605E+03 0.12134521953E+03 0.99152987495E+02 0.75632176023E+02 0.53895968326E+02
 0.37154515722E+02 0.26585708104E+02 0.20373605966E+02 0.16468682735E+02 0.14004294017E+02
 0.12408300895E+02 0.11354154606E+02 0.10620943481E+02 0.10130088685E+02 0.99475829155E+01
 0.10130037265E+02 0.10620900763E+02 0.11354174394E+02 0.12408367262E+02 0.14004330589E+02
 0.16468633190E+02 0.20373507010E+02 0.26585673952E+02 0.37154629632E+02 0.53896174257E+02
 0.75632276854E+02 0.99152778944E+02 0.12134466809E+03 0.17274219666E+03 0.18467376695E+03
 0.18475659595E+03 0.17287809173E+03 0.15269006832E+03 0.12833040837E+03 0.10208775427E+03
 0.75673950597E+02 0.52202806786E+02 0.35094709310E+02 0.25015150240E+02 0.19211384189E+02
 0.15552527779E+02 0.13251052669E+02 0.11882071492E+02 0.11037549684E+02 0.10397773693E+02
 0.10000794595E+02 0.10026012019E+02 0.10417702125E+02 0.11005113841E+02 0.11865158580E+02
 0.13292759284E+02 0.15570494841E+02 0.19160618882E+02 0.24994477329E+02 0.35163613016E+02
 0.52256721698E+02 0.75632276854E+02 0.10203306559E+03 0.12832579596E+03 0.15264380680E+03
 0.20599272982E+03 0.21418970117E+03 0.20599278559E+03 0.18475659595E+03 0.15730184907E+03
 0.12832590424E+03 0.99152814272E+02 0.71078094989E+02 0.47511866413E+02 0.31616297331E+02
 0.22847759471E+02 0.17726539958E+02 0.14488165922E+02 0.12489918004E+02 0.11398221280E+02
 0.10723468225E+02 0.10158623459E+02 0.99002143951E+01 0.10158666294E+02 0.10723508033E+02
 0.11398207174E+02 0.12489841088E+02 0.14488072841E+02 0.17726500204E+02 0.22847812878E+02
 0.31616422444E+02 0.47511994534E+02 0.71078155359E+02 0.99152778944E+02 0.12832579596E+03
 0.15730171957E+03 0.18475649141E+03 0.23318029497E+03 0.23302193065E+03 0.21418970117E+03
 0.18467376695E+03 0.15268959393E+03 0.12132776502E+03 0.90686523109E+02 0.62591743871E+02
 0.40905493014E+02 0.27621257872E+02 0.20448626867E+02 0.16125269083E+02 0.13441766241E+02
 0.11858899993E+02 0.10994234162E+02 0.10402437128E+02 0.99615627461E+01 0.99254432531E+01
 0.10373595911E+02 0.11040209932E+02 0.11883725404E+02 0.13383610446E+02 0.16098670650E+02
 0.20517489832E+02 0.27653903005E+02 0.40825817224E+02 0.62533328154E+02 0.90728406293E+02
 0.12134466809E+03 0.15264380680E+03 0.18475649141E+03 0.21445432448E+03 0.23318029497E+03
 0.21445432448E+03 0.18475649141E+03 0.15264380680E+03 0.12134466809E+03 0.90728406293E+02
 0.62533328154E+02 0.40825817224E+02 0.27653903005E+02 0.20517489832E+02 0.16098670650E+02
 0.13383610446E+02 0.11883725404E+02 0.11040209932E+02 0.10373595911E+02 0.99254432531E+01
 0.99615627461E+01 0.10402437128E+02 0.10994234162E+02 0.11858899993E+02 0.13441766241E+02
 0.16125269083E+02 0.20448626867E+02 0.27621257872E+02 0.40905493014E+02 0.62591743871E+02
 0.90686523109E+02 0.12132776502E+03 0.15268959393E+03 0.18467376695E+03 0.21418970117E+03
 0.23302193065E+03 0.21445432448E+03 0.19126214826E+03 0.16176038442E+03 0.13147247948E+03
 0.10167107611E+03 0.73131710478E+02 0.48974243276E+02 0.32493485772E+02 0.23378279207E+02
 0.18102191129E+02 0.14764291577E+02 0.12711560025E+02 0.11603091038E+02 0.10923070075E+02
 0.10343396775E+02 0.10073436628E+02 0.10341013430E+02 0.10923085117E+02 0.11606049708E+02
 0.12712626129E+02 0.14762723920E+02 0.18102449023E+02 0.23378503497E+02 0.32489053553E+02
 0.48983995707E+02 0.73194069404E+02 0.10177397589E+03 0.13150003921E+03 0.16157949751E+03
 0.19090218490E+03 0.21415287223E+03 0.22335241998E+03 0.18475649141E+03 0.16176038442E+03
 0.13512946598E+03 0.10745812430E+03 0.80049072204E+02 0.55522512194E+02 0.37226957539E+02
 0.26211865849E+02 0.20002439303E+02 0.16187693526E+02 0.13777457253E+02 0.12285812521E+02
 0.11403677137E+02 0.10795964814E+02 0.10377080557E+02 0.10347663107E+02 0.10772529110E+02
 0.11441463826E+02 0.12306626047E+02 0.13730567814E+02 0.16166716507E+02 0.20058703981E+02
 0.26234698519E+02 0.37159352512E+02 0.55499478412E+02 0.80155236639E+02 0.10754364947E+03
 0.13504703899E+03 0.16160179954E+03 0.18467730471E+03 0.19874867807E+03 0.19875712786E+03
 0.15264380680E+03 0.13147247948E+03 0.10745812430E+03 0.82504133357E+02 0.59132123611E+02
 0.40598443114E+02 0.28632543792E+02 0.21746798184E+02 0.17469480130E+02 0.14784327459E+02
 0.13066347949E+02 0.11953928004E+02 0.11183399852E+02 0.10652368478E+02 0.10447167899E+02
 0.10648488532E+02 0.11183392029E+02 0.11957850156E+02 0.13065982278E+02 0.14779813880E+02
 0.17470652324E+02 0.21752526051E+02 0.28624990059E+02 0.40569956598E+02 0.59106838321E+02
 0.82517109639E+02 0.10751548930E+03 0.13154430285E+03 0.15269628824E+03 0.16802453234E+03
 0.17374329390E+03 0.16800139135E+03 0.12134466809E+03 0.10167107611E+03 0.80049072204E+02
 0.59132123611E+02 0.41826176155E+02 0.29987688901E+02 0.22937204107E+02 0.18509007856E+02
 0.15668029794E+02 0.13767418000E+02 0.12475116103E+02 0.11556955080E+02 0.10872016583E+02
 0.10476448625E+02 0.10487567030E+02 0.10879647303E+02 0.11541185385E+02 0.12469471218E+02
 0.13788722761E+02 0.15673897363E+02 0.18482077860E+02 0.22927098923E+02 0.30013787124E+02
 0.41834479507E+02 0.59106169874E+02 0.80055069294E+02 0.10172660477E+03 0.12136105503E+03
 0.13658075282E+03 0.14507687996E+03 0.14512372185E+03 0.13664455574E+03 0.90728406293E+02
 0.73131710478E+02 0.55522512194E+02 0.40598443114E+02 0.29987688901E+02 0.23339231692E+02
 0.19036486485E+02 0.16261521595E+02 0.14350346912E+02 0.12926447507E+02 0.11840472885E+02
 0.11011487227E+02 0.10440825249E+02 0.10229049318E+02 0.10441636533E+02 0.11011746945E+02
 0.11840285531E+02 0.12926910634E+02 0.14350134090E+02 0.16258956431E+02 0.19037091451E+02
 0.23353832388E+02 0.30014737472E+02 0.40613136606E+02 0.55497558147E+02 0.73071989746E+02
 0.90672003649E+02 0.10555528366E+03 0.11547385467E+03 0.11894927428E+03 0.11547252388E+03
 0.10557835209E+03 0.62533328154E+02 0.48974243276E+02 0.37226957539E+02 0.28632543792E+02
 0.22937204107E+02 0.19036486485E+02 0.16447637062E+02 0.14653417435E+02 0.13253788629E+02
 0.12067154190E+02 0.11066172197E+02 0.10306740050E+02 0.98854049701E+01 0.98835386042E+01
 0.10306263174E+02 0.11070136745E+02 0.12067476848E+02 0.13248173354E+02 0.14653102423E+02
 0.16455304236E+02 0.19037538905E+02 0.22926502505E+02 0.28626413142E+02 0.37234317093E+02
 0.48981575184E+02 0.62534106923E+02 0.75611737500E+02 0.85843719142E+02 0.91418813825E+02
 0.91404093038E+02 0.85818443999E+02 0.75601380791E+02 0.40825817224E+02 0.32493485772E+02
 0.26211865849E+02 0.21746798184E+02 0.18509007856E+02 0.16261521595E+02 0.14653417435E+02
 0.13362017338E+02 0.12191978917E+02 0.11093026889E+02 0.10144674048E+02 0.94923159651E+01
 0.92596426293E+01 0.94927436547E+01 0.10144560992E+02 0.11092424307E+02 0.12192802733E+02
 0.13364860334E+02 0.14652767265E+02 0.16247886944E+02 0.18482402575E+02 0.21728959958E+02
 0.26234753298E+02 0.32563884419E+02 0.40904159091E+02 0.50252948412E+02 0.58851371935E+02
 0.64891657689E+02 0.67081630886E+02 0.64935867383E+02 0.58882478737E+02 0.50222679183E+02
 0.27653903005E+02 0.23378279207E+02 0.20002439303E+02 0.17469480130E+02 0.15668029794E+02
 0.14350346912E+02 0.13253788629E+02 0.12191978917E+02 0.11097401669E+02 0.10038087883E+02
 0.91794645606E+01 0.86958102901E+01 0.86947953949E+01 0.91780569853E+01 0.10038471623E+02
 0.11098834725E+02 0.12192313128E+02 0.13252948727E+02 0.14349958571E+02 0.15668605389E+02
 0.17470066014E+02 0.20002411962E+02 0.23377874920E+02 0.27653613941E+02 0.32917439327E+02
 0.38540466089E+02 0.43341363359E+02 0.46111777347E+02 0.46110162269E+02 0.43338048220E+02
 0.38538061462E+02 0.32916786307E+02 0.20517489832E+02 0.18102191129E+02 0.16187693526E+02
 0.14784327459E+02 0.13767418000E+02 0.12926447507E+02 0.12067154190E+02 0.11093026889E+02
 0.10038087883E+02 0.90582633907E+01 0.83569373081E+01 0.81008339256E+01 0.83554576281E+01
 0.90578740885E+01 0.10038784238E+02 0.11092149977E+02 0.12067037972E+02 0.12936371720E+02
 0.13789563550E+02 0.14799361606E+02 0.16166592092E+02 0.18040001449E+02 0.20448880246E+02
 0.23266155702E+02 0.26306300144E+02 0.29247635978E+02 0.31442116918E+02 0.32244990953E+02
 0.31397586058E+02 0.29188929698E+02 0.26277797342E+02 0.23294359357E+02 0.16098670650E+02
 0.14764291577E+02 0.13777457253E+02 0.13066347949E+02 0.12475116103E+02 0.11840472885E+02
 0.11066172197E+02 0.10144674048E+02 0.91794645606E+01 0.83569373081E+01 0.78789055320E+01
 0.78783187849E+01 0.83558944018E+01 0.91790339108E+01 0.10144870375E+02 0.11066446274E+02
 0.11840835252E+02 0.12475786523E+02 0.13066870079E+02 0.13777250851E+02 0.14763764926E+02
 0.16098754056E+02 0.17743386117E+02 0.19564523287E+02 0.21348937585E+02 0.22811269582E+02
 0.23650397922E+02 0.23651073024E+02 0.22812685069E+02 0.21349840226E+02 0.19564293066E+02
 0.17742700805E+02 0.13383610446E+02 0.12711560025E+02 0.12285812521E+02 0.11953928004E+02
 0.11556955080E+02 0.11011487227E+02 0.10306740050E+02 0.94923159651E+01 0.86958102901E+01
 0.81008339256E+01 0.78783187849E+01 0.80995476771E+01 0.86950316713E+01 0.94930273585E+01
 0.10305909820E+02 0.11003322727E+02 0.11541646719E+02 0.11945900347E+02 0.12306241085E+02
 0.12764603761E+02 0.13442030436E+02 0.14368399139E+02 0.15471147726E+02 0.16612607652E+02
 0.17624362911E+02 0.18329776717E+02 0.18587042298E+02 0.18345576186E+02 0.17661492173E+02
 0.16659305886E+02 0.15494197987E+02 0.14343882187E+02 0.11883725404E+02 0.11603091038E+02
 0.11403677137E+02 0.11183399852E+02 0.10872016583E+02 0.10440825249E+02 0.98854049701E+01
 0.92596426293E+01 0.86947953949E+01 0.83554576281E+01 0.83558944018E+01 0.86950316713E+01
 0.92587480245E+01 0.98846813430E+01 0.10441268358E+02 0.10872401469E+02 0.11183090970E+02
 0.11404283210E+02 0.11605031433E+02 0.11884481505E+02 0.12330261152E+02 0.12961284036E+02
 0.13703463675E+02 0.14422501415E+02 0.14983040816E+02 0.15288240182E+02 0.15289113119E+02
 0.14983961749E+02 0.14421805098E+02 0.13702992779E+02 0.12962886340E+02 0.12331947119E+02
 0.11040209932E+02 0.10923070075E+02 0.10795964814E+02 0.10652368478E+02 0.10476448625E+02
 0.10229049318E+02 0.98835386042E+01 0.94927436547E+01 0.91780569853E+01 0.90578740885E+01
 0.91790339108E+01 0.94930273585E+01 0.98846813430E+01 0.10235887547E+02 0.10487979204E+02
 0.10654859508E+02 0.10772850886E+02 0.10875725747E+02 0.10994236993E+02 0.11173747841E+02
 0.11468288768E+02 0.11894155037E+02 0.12391047969E+02 0.12844705474E+02 0.13152275229E+02
 0.13260262648E+02 0.13151738933E+02 0.12834005120E+02 0.12362779092E+02 0.11857140723E+02
 0.11447343265E+02 0.11189215460E+02 0.10373595911E+02 0.10343396775E+02 0.10377080557E+02
 0.10447167899E+02 0.10487567030E+02 0.10441636533E+02 0.10306263174E+02 0.10144560992E+02
 0.10038471623E+02 0.10038784238E+02 0.10144870375E+02 0.10305909820E+02 0.10441268358E+02
 0.10487979204E+02 0.10447712444E+02 0.10376658423E+02 0.10342423559E+02 0.10373506988E+02
 0.10460529414E+02 0.10599117101E+02 0.10807045438E+02 0.11089955259E+02 0.11405355149E+02
 0.11674813434E+02 0.11827496499E+02 0.11827326592E+02 0.11674640831E+02 0.11405715344E+02
 0.11090679298E+02 0.10807181712E+02 0.10598182052E+02 0.10459471397E+02 0.99254432531E+01
 0.10073436628E+02 0.10347663107E+02 0.10648488532E+02 0.10879647303E+02 0.11011746945E+02
 0.11070136745E+02 0.11092424307E+02 0.11098834725E+02 0.11092149977E+02 0.11066446274E+02
 0.11003322727E+02 0.10872401469E+02 0.10654859508E+02 0.10376658423E+02 0.10118023435E+02
 0.99619096939E+01 0.99338382626E+01 0.99995144245E+01 0.10114518752E+02 0.10260022632E+02
 0.10429954132E+02 0.10602265043E+02 0.10734896508E+02 0.10785651781E+02 0.10735368568E+02
 0.10602274513E+02 0.10435524717E+02 0.10280978631E+02 0.10148090368E+02 0.10024308337E+02
 0.99279273529E+01 0.99615627461E+01 0.10341013430E+02 0.10772529110E+02 0.11183392029E+02
 0.11541185385E+02 0.11840285531E+02 0.12067476848E+02 0.12192802733E+02 0.12192313128E+02
 0.12067037972E+02 0.11840835252E+02 0.11541646719E+02 0.11183090970E+02 0.10772850886E+02
 0.10342423559E+02 0.99619096939E+01 0.97089075006E+01 0.96123476563E+01 0.96315844812E+01
 0.96965396333E+01 0.97631018778E+01 0.98246359790E+01 0.98813625396E+01 0.99182010527E+01
 0.99175018082E+01 0.98806425958E+01 0.98252166064E+01 0.97635288658E+01 0.96956039966E+01
 0.96311296834E+01 0.96139846044E+01 0.97107159525E+01 0.10402437128E+02 0.10923085117E+02
 0.11441463826E+02 0.11957850156E+02 0.12469471218E+02 0.12926910634E+02 0.13248173354E+02
 0.13364860334E+02 0.13252948727E+02 0.12936371720E+02 0.12475786523E+02 0.11945900347E+02
 0.11404283210E+02 0.10875725747E+02 0.10373506988E+02 0.99338382626E+01 0.96123476563E+01
 0.94356595365E+01 0.93668273494E+01 0.93341498481E+01 0.92923234084E+01 0.92445467758E+01
 0.92113857269E+01 0.92003575140E+01 0.92108968712E+01 0.92449473204E+01 0.92939022756E+01
 0.93319461787E+01 0.93516656486E+01 0.94053319354E+01 0.95819888683E+01 0.99279273529E+01
 0.10994234162E+02 0.11606049708E+02 0.12306626047E+02 0.13065982278E+02 0.13788722761E+02
 0.14350134090E+02 0.14653102423E+02 0.14652767265E+02 0.14349958571E+02 0.13789563550E+02
 0.13066870079E+02 0.12306241085E+02 0.11605031433E+02 0.10994236993E+02 0.10460529414E+02
 0.99995144245E+01 0.96315844812E+01 0.93668273494E+01 0.91757339843E+01 0.90099067737E+01
 0.88465894807E+01 0.87043506468E+01 0.86203446484E+01 0.86204457404E+01 0.87044729737E+01
 0.88464487325E+01 0.90096653126E+01 0.91760334031E+01 0.93678182047E+01 0.96322699310E+01