   3   3   1   0
  0.1764755E+02  0.4214767E-09  0.4214767E-09  0.4214767E-09  0.5000000E-15
  1.000000000000000E-004
  CAR 
 AuAl2                                   
     34.29088103     -6.03563408  301      6.66651897      1.00000000
     -6.036  0.0000E+00  0.0000E+00
     -5.901  0.0000E+00  0.0000E+00
     -5.767  0.0000E+00  0.0000E+00
     -5.632  0.0000E+00  0.0000E+00
     -5.498  0.0000E+00  0.0000E+00
     -5.364  0.0000E+00  0.0000E+00
     -5.229  0.0000E+00  0.0000E+00
     -5.095  0.1056E-14  0.1419E-15
     -4.960  0.9604E-12  0.1292E-12
     -4.826  0.3646E-09  0.4914E-10
     -4.691  0.5860E-07  0.7926E-08
     -4.557  0.4069E-05  0.5549E-06
     -4.423  0.1257E-03  0.1746E-04
     -4.288  0.1800E-02  0.2594E-03
     -4.154  0.1260E-01  0.1952E-02
     -4.019  0.4665E-01  0.8223E-02
     -3.885  0.1035E+00  0.2214E-01
     -3.750  0.1624E+00  0.4397E-01
     -3.616  0.2095E+00  0.7213E-01
     -3.482  0.2512E+00  0.1059E+00
     -3.347  0.2867E+00  0.1444E+00
     -3.213  0.3173E+00  0.1871E+00
     -3.078  0.3585E+00  0.2353E+00
     -2.944  0.3911E+00  0.2879E+00
     -2.810  0.4129E+00  0.3434E+00
     -2.675  0.4647E+00  0.4058E+00
     -2.541  0.5170E+00  0.4753E+00
     -2.406  0.5424E+00  0.5482E+00
     -2.272  0.6011E+00  0.6290E+00
     -2.137  0.7133E+00  0.7249E+00
     -2.003  0.8373E+00  0.8375E+00
     -1.869  0.8884E+00  0.9569E+00
     -1.734  0.8820E+00  0.1075E+01
     -1.600  0.8964E+00  0.1196E+01
     -1.465  0.9152E+00  0.1319E+01
     -1.331  0.8307E+00  0.1431E+01
     -1.196  0.7456E+00  0.1531E+01
     -1.062  0.8280E+00  0.1642E+01
     -0.928  0.1005E+01  0.1777E+01
     -0.793  0.1338E+01  0.1957E+01
     -0.659  0.2104E+01  0.2240E+01
     -0.524  0.3312E+01  0.2685E+01
     -0.390  0.4070E+01  0.3232E+01
     -0.256  0.3455E+01  0.3697E+01
     -0.121  0.2631E+01  0.4050E+01
      0.013  0.3600E+01  0.4534E+01
      0.148  0.6180E+01  0.5365E+01
      0.282  0.7290E+01  0.6345E+01
      0.417  0.5681E+01  0.7109E+01
      0.551  0.4248E+01  0.7680E+01
      0.685  0.4621E+01  0.8301E+01
      0.820  0.6152E+01  0.9128E+01
      0.954  0.7661E+01  0.1016E+02
      1.089  0.7306E+01  0.1114E+02
      1.223  0.4548E+01  0.1175E+02
      1.358  0.1878E+01  0.1200E+02
      1.492  0.8134E+00  0.1211E+02
      1.626  0.6897E+00  0.1221E+02
      1.761  0.7405E+00  0.1231E+02
      1.895  0.8829E+00  0.1242E+02
      2.030  0.1083E+01  0.1257E+02
      2.164  0.1098E+01  0.1272E+02
      2.299  0.9877E+00  0.1285E+02
      2.433  0.8889E+00  0.1297E+02
      2.567  0.7655E+00  0.1307E+02
      2.702  0.6642E+00  0.1316E+02
      2.836  0.7050E+00  0.1326E+02
      2.971  0.7746E+00  0.1336E+02
      3.105  0.7504E+00  0.1346E+02
      3.239  0.7247E+00  0.1356E+02
      3.374  0.8017E+00  0.1367E+02
      3.508  0.8421E+00  0.1378E+02
      3.643  0.7657E+00  0.1388E+02
      3.777  0.7939E+00  0.1399E+02
      3.912  0.8779E+00  0.1411E+02
      4.046  0.8826E+00  0.1423E+02
      4.180  0.8032E+00  0.1433E+02
      4.315  0.7302E+00  0.1443E+02
      4.449  0.8985E+00  0.1455E+02
      4.584  0.1244E+01  0.1472E+02
      4.718  0.1335E+01  0.1490E+02
      4.853  0.1186E+01  0.1506E+02
      4.987  0.1118E+01  0.1521E+02
      5.121  0.1201E+01  0.1537E+02
      5.256  0.1296E+01  0.1554E+02
      5.390  0.1257E+01  0.1571E+02
      5.525  0.1106E+01  0.1586E+02
      5.659  0.1034E+01  0.1600E+02
      5.793  0.1052E+01  0.1614E+02
      5.928  0.1081E+01  0.1629E+02
      6.062  0.1118E+01  0.1644E+02
      6.197  0.1094E+01  0.1659E+02
      6.331  0.9581E+00  0.1671E+02
      6.466  0.8121E+00  0.1682E+02
      6.600  0.8391E+00  0.1694E+02
      6.734  0.9987E+00  0.1707E+02
      6.869  0.1024E+01  0.1721E+02
      7.003  0.7809E+00  0.1731E+02
      7.138  0.5328E+00  0.1738E+02
      7.272  0.5048E+00  0.1745E+02
      7.407  0.5984E+00  0.1753E+02
      7.541  0.5870E+00  0.1761E+02
      7.675  0.4256E+00  0.1767E+02
      7.810  0.2867E+00  0.1771E+02
      7.944  0.3002E+00  0.1775E+02
      8.079  0.4406E+00  0.1781E+02
      8.213  0.5514E+00  0.1788E+02
      8.347  0.6478E+00  0.1797E+02
      8.482  0.7716E+00  0.1807E+02
      8.616  0.8613E+00  0.1819E+02
      8.751  0.1001E+01  0.1832E+02
      8.885  0.1196E+01  0.1848E+02
      9.020  0.1309E+01  0.1866E+02
      9.154  0.1401E+01  0.1885E+02
      9.288  0.1533E+01  0.1905E+02
      9.423  0.1682E+01  0.1928E+02
      9.557  0.1792E+01  0.1952E+02
      9.692  0.1736E+01  0.1975E+02
      9.826  0.1540E+01  0.1996E+02
      9.961  0.1193E+01  0.2012E+02
     10.095  0.8165E+00  0.2023E+02
     10.229  0.6839E+00  0.2032E+02
     10.364  0.9046E+00  0.2044E+02
     10.498  0.1445E+01  0.2064E+02
     10.633  0.1971E+01  0.2090E+02
     10.767  0.2050E+01  0.2118E+02
     10.902  0.1869E+01  0.2143E+02
     11.036  0.1766E+01  0.2167E+02
     11.170  0.1722E+01  0.2190E+02
     11.305  0.1677E+01  0.2212E+02
     11.439  0.1662E+01  0.2235E+02
     11.574  0.1806E+01  0.2259E+02
     11.708  0.1971E+01  0.2286E+02
     11.842  0.2001E+01  0.2312E+02
     11.977  0.1983E+01  0.2339E+02
     12.111  0.2025E+01  0.2366E+02
     12.246  0.1999E+01  0.2393E+02
     12.380  0.1937E+01  0.2419E+02
     12.515  0.1903E+01  0.2445E+02
     12.649  0.1893E+01  0.2470E+02
     12.783  0.1834E+01  0.2495E+02
     12.918  0.1715E+01  0.2518E+02
     13.052  0.1676E+01  0.2541E+02
     13.187  0.1740E+01  0.2564E+02
     13.321  0.1715E+01  0.2587E+02
     13.456  0.1545E+01  0.2608E+02
     13.590  0.1505E+01  0.2628E+02
     13.724  0.1657E+01  0.2650E+02
     13.859  0.1776E+01  0.2674E+02
     13.993  0.1737E+01  0.2697E+02
     14.128  0.1668E+01  0.2720E+02
     14.262  0.1606E+01  0.2741E+02
     14.396  0.1527E+01  0.2762E+02
     14.531  0.1437E+01  0.2781E+02
     14.665  0.1434E+01  0.2801E+02
     14.800  0.1536E+01  0.2821E+02
     14.934  0.1560E+01  0.2842E+02
     15.069  0.1607E+01  0.2864E+02
     15.203  0.1722E+01  0.2887E+02
     15.337  0.1809E+01  0.2911E+02
     15.472  0.1929E+01  0.2937E+02
     15.606  0.2017E+01  0.2964E+02
     15.741  0.2090E+01  0.2992E+02
     15.875  0.2165E+01  0.3022E+02
     16.010  0.1966E+01  0.3048E+02
     16.144  0.1694E+01  0.3071E+02
     16.278  0.1677E+01  0.3093E+02
     16.413  0.1747E+01  0.3117E+02
     16.547  0.1696E+01  0.3140E+02
     16.682  0.1549E+01  0.3160E+02
     16.816  0.1416E+01  0.3179E+02
     16.950  0.1275E+01  0.3197E+02
     17.085  0.1166E+01  0.3212E+02
     17.219  0.1228E+01  0.3229E+02
     17.354  0.1311E+01  0.3246E+02
     17.488  0.1292E+01  0.3264E+02
     17.623  0.1366E+01  0.3282E+02
     17.757  0.1513E+01  0.3302E+02
     17.891  0.1576E+01  0.3324E+02
     18.026  0.1651E+01  0.3346E+02
     18.160  0.1700E+01  0.3369E+02
     18.295  0.1634E+01  0.3391E+02
     18.429  0.1681E+01  0.3413E+02
     18.564  0.1898E+01  0.3439E+02
     18.698  0.1984E+01  0.3465E+02
     18.832  0.1777E+01  0.3489E+02
     18.967  0.1692E+01  0.3512E+02
     19.101  0.1937E+01  0.3538E+02
     19.236  0.2200E+01  0.3568E+02
     19.370  0.2139E+01  0.3596E+02
     19.504  0.1744E+01  0.3620E+02
     19.639  0.1460E+01  0.3639E+02
     19.773  0.1626E+01  0.3661E+02
     19.908  0.2032E+01  0.3689E+02
     20.042  0.2134E+01  0.3717E+02
     20.177  0.1947E+01  0.3743E+02
     20.311  0.1849E+01  0.3768E+02
     20.445  0.1775E+01  0.3792E+02
     20.580  0.1631E+01  0.3814E+02
     20.714  0.1552E+01  0.3835E+02
     20.849  0.1705E+01  0.3858E+02
     20.983  0.1897E+01  0.3883E+02
     21.118  0.1870E+01  0.3909E+02
     21.252  0.1903E+01  0.3934E+02
     21.386  0.2087E+01  0.3962E+02
     21.521  0.2269E+01  0.3993E+02
     21.655  0.2466E+01  0.4026E+02
     21.790  0.2456E+01  0.4059E+02
     21.924  0.2270E+01  0.4089E+02
     22.059  0.2168E+01  0.4118E+02
     22.193  0.2096E+01  0.4147E+02
     22.327  0.1926E+01  0.4173E+02
     22.462  0.1729E+01  0.4196E+02
     22.596  0.1705E+01  0.4219E+02
     22.731  0.1771E+01  0.4243E+02
     22.865  0.1764E+01  0.4266E+02
     22.999  0.1882E+01  0.4292E+02
     23.134  0.2082E+01  0.4319E+02
     23.268  0.2045E+01  0.4347E+02
     23.403  0.2042E+01  0.4374E+02
     23.537  0.2157E+01  0.4403E+02
     23.672  0.2190E+01  0.4433E+02
     23.806  0.2323E+01  0.4464E+02
     23.940  0.2385E+01  0.4496E+02
     24.075  0.2318E+01  0.4527E+02
     24.209  0.2300E+01  0.4558E+02
     24.344  0.2295E+01  0.4589E+02
     24.478  0.2343E+01  0.4621E+02
     24.613  0.2425E+01  0.4653E+02
     24.747  0.2362E+01  0.4685E+02
     24.881  0.2189E+01  0.4714E+02
     25.016  0.2125E+01  0.4743E+02
     25.150  0.2112E+01  0.4771E+02
     25.285  0.2052E+01  0.4799E+02
     25.419  0.2190E+01  0.4828E+02
     25.553  0.2494E+01  0.4862E+02
     25.688  0.2575E+01  0.4896E+02
     25.822  0.2330E+01  0.4928E+02
     25.957  0.1991E+01  0.4955E+02
     26.091  0.1746E+01  0.4978E+02
     26.226  0.1680E+01  0.5001E+02
     26.360  0.1843E+01  0.5025E+02
     26.494  0.2037E+01  0.5053E+02
     26.629  0.1971E+01  0.5079E+02
     26.763  0.1717E+01  0.5102E+02
     26.898  0.1629E+01  0.5124E+02
     27.032  0.1725E+01  0.5147E+02
     27.167  0.1793E+01  0.5171E+02
     27.301  0.1891E+01  0.5197E+02
     27.435  0.2004E+01  0.5224E+02
     27.570  0.1943E+01  0.5250E+02
     27.704  0.1847E+01  0.5275E+02
     27.839  0.1876E+01  0.5300E+02
     27.973  0.2006E+01  0.5327E+02
     28.107  0.2119E+01  0.5355E+02
     28.242  0.2128E+01  0.5384E+02
     28.376  0.2182E+01  0.5413E+02
     28.511  0.2363E+01  0.5445E+02
     28.645  0.2494E+01  0.5479E+02
     28.780  0.2427E+01  0.5511E+02
     28.914  0.2361E+01  0.5543E+02
     29.048  0.2372E+01  0.5575E+02
     29.183  0.2205E+01  0.5605E+02
     29.317  0.1935E+01  0.5631E+02
     29.452  0.1857E+01  0.5656E+02
     29.586  0.2039E+01  0.5683E+02
     29.721  0.2355E+01  0.5715E+02
     29.855  0.2555E+01  0.5749E+02
     29.989  0.2496E+01  0.5782E+02
     30.124  0.2211E+01  0.5812E+02
     30.258  0.1855E+01  0.5837E+02
     30.393  0.1637E+01  0.5859E+02
     30.527  0.1501E+01  0.5879E+02
     30.661  0.1352E+01  0.5897E+02
     30.796  0.1237E+01  0.5914E+02
     30.930  0.1163E+01  0.5930E+02
     31.065  0.1017E+01  0.5943E+02
     31.199  0.7762E+00  0.5954E+02
     31.334  0.6238E+00  0.5962E+02
     31.468  0.6115E+00  0.5970E+02
     31.602  0.5825E+00  0.5978E+02
     31.737  0.4662E+00  0.5985E+02
     31.871  0.3702E+00  0.5990E+02
     32.006  0.3278E+00  0.5994E+02
     32.140  0.2340E+00  0.5997E+02
     32.275  0.1296E+00  0.5999E+02
     32.409  0.6140E-01  0.6000E+02
     32.543  0.2006E-01  0.6000E+02
     32.678  0.3497E-02  0.6000E+02
     32.812  0.2856E-03  0.6000E+02
     32.947  0.1030E-04  0.6000E+02
     33.081  0.1590E-06  0.6000E+02
     33.216  0.1032E-08  0.6000E+02
     33.350  0.2787E-11  0.6000E+02
     33.484  0.3112E-14  0.6000E+02
     33.619  0.0000E+00  0.6000E+02
     33.753  0.0000E+00  0.6000E+02
     33.888  0.0000E+00  0.6000E+02
     34.022  0.0000E+00  0.6000E+02
     34.156  0.0000E+00  0.6000E+02
     34.291  0.0000E+00  0.6000E+02
     34.29088103     -6.03563408  301      6.66651897      1.00000000
     -6.036  0.0000E+00  0.0000E+00  0.0000E+00
     -5.901  0.0000E+00  0.0000E+00  0.0000E+00
     -5.767  0.0000E+00  0.0000E+00  0.0000E+00
     -5.632  0.0000E+00  0.0000E+00  0.0000E+00
     -5.498  0.0000E+00  0.0000E+00  0.0000E+00
     -5.364  0.0000E+00  0.0000E+00  0.0000E+00
     -5.229  0.0000E+00  0.0000E+00  0.0000E+00
     -5.095  0.2775E-15  0.6666E-18  0.1213E-19
     -4.960  0.2525E-12  0.6343E-15  0.1233E-16
     -4.826  0.9585E-10  0.2576E-12  0.5487E-14
     -4.691  0.1540E-07  0.4605E-10  0.1116E-11
     -4.557  0.1069E-05  0.3734E-08  0.1069E-09
     -4.423  0.3301E-04  0.1418E-06  0.4958E-08
     -4.288  0.4720E-03  0.2609E-05  0.1150E-06
     -4.154  0.3298E-02  0.2438E-04  0.1400E-05
     -4.019  0.1218E-01  0.1254E-03  0.9720E-05
     -3.885  0.2694E-01  0.3994E-03  0.4285E-04
     -3.750  0.4201E-01  0.8885E-03  0.1327E-03
     -3.616  0.5384E-01  0.1558E-02  0.3204E-03
     -3.482  0.6404E-01  0.2403E-02  0.6588E-03
     -3.347  0.7247E-01  0.3311E-02  0.1197E-02
     -3.213  0.7949E-01  0.4319E-02  0.2012E-02
     -3.078  0.8893E-01  0.5579E-02  0.3240E-02
     -2.944  0.9611E-01  0.6701E-02  0.4971E-02
     -2.810  0.1003E+00  0.7726E-02  0.7320E-02
     -2.675  0.1115E+00  0.9443E-02  0.1094E-01
     -2.541  0.1225E+00  0.1099E-01  0.1599E-01
     -2.406  0.1264E+00  0.1174E-01  0.2321E-01
     -2.272  0.1373E+00  0.1309E-01  0.3493E-01
     -2.137  0.1592E+00  0.1527E-01  0.5456E-01
     -2.003  0.1819E+00  0.1690E-01  0.8303E-01
     -1.869  0.1873E+00  0.1677E-01  0.1095E+00
     -1.734  0.1800E+00  0.1690E-01  0.1254E+00
     -1.600  0.1771E+00  0.1919E-01  0.1371E+00
     -1.465  0.1738E+00  0.2097E-01  0.1541E+00
     -1.331  0.1491E+00  0.1891E-01  0.1629E+00
     -1.196  0.1221E+00  0.1665E-01  0.1773E+00
     -1.062  0.1201E+00  0.1850E-01  0.2348E+00
     -0.928  0.1123E+00  0.2006E-01  0.3696E+00
     -0.793  0.7957E-01  0.2022E-01  0.6707E+00
     -0.659  0.5351E-01  0.3147E-01  0.1220E+01
     -0.524  0.4931E-01  0.6356E-01  0.1958E+01
     -0.390  0.4495E-01  0.9415E-01  0.2394E+01
     -0.256  0.2963E-01  0.8776E-01  0.2044E+01
     -0.121  0.2136E-01  0.5923E-01  0.1656E+01
      0.013  0.2811E-01  0.4704E-01  0.2545E+01
      0.148  0.3676E-01  0.5724E-01  0.4581E+01
      0.282  0.3729E-01  0.6189E-01  0.5498E+01
      0.417  0.4179E-01  0.4063E-01  0.4388E+01
      0.551  0.6921E-01  0.1811E-01  0.3395E+01
      0.685  0.1229E+00  0.1291E-01  0.3734E+01
      0.820  0.1928E+00  0.1687E-01  0.4979E+01
      0.954  0.2576E+00  0.2046E-01  0.6254E+01
      1.089  0.2706E+00  0.2029E-01  0.5985E+01
      1.223  0.2020E+00  0.1762E-01  0.3672E+01
      1.358  0.1159E+00  0.1756E-01  0.1417E+01
      1.492  0.7467E-01  0.2610E-01  0.4803E+00
      1.626  0.6642E-01  0.4125E-01  0.3046E+00
      1.761  0.5880E-01  0.5636E-01  0.2867E+00
      1.895  0.6087E-01  0.7833E-01  0.3024E+00
      2.030  0.8072E-01  0.1019E+00  0.3347E+00
      2.164  0.9642E-01  0.1053E+00  0.3100E+00
      2.299  0.9183E-01  0.9778E-01  0.2604E+00
      2.433  0.7876E-01  0.9229E-01  0.2232E+00
      2.567  0.7241E-01  0.8191E-01  0.1762E+00
      2.702  0.7486E-01  0.7270E-01  0.1299E+00
      2.836  0.8553E-01  0.7955E-01  0.1217E+00
      2.971  0.8895E-01  0.8984E-01  0.1342E+00
      3.105  0.7314E-01  0.8975E-01  0.1413E+00
      3.239  0.5766E-01  0.9012E-01  0.1438E+00
      3.374  0.6206E-01  0.1031E+00  0.1489E+00
      3.508  0.6574E-01  0.1106E+00  0.1474E+00
      3.643  0.5334E-01  0.1033E+00  0.1339E+00
      3.777  0.4615E-01  0.1105E+00  0.1407E+00
      3.912  0.5439E-01  0.1242E+00  0.1459E+00
      4.046  0.6202E-01  0.1267E+00  0.1316E+00
      4.180  0.4685E-01  0.1186E+00  0.1182E+00
      4.315  0.2843E-01  0.1120E+00  0.1090E+00
      4.449  0.3358E-01  0.1413E+00  0.1247E+00
      4.584  0.4913E-01  0.1980E+00  0.1620E+00
      4.718  0.4654E-01  0.2159E+00  0.1685E+00
      4.853  0.3111E-01  0.1965E+00  0.1449E+00
      4.987  0.2438E-01  0.1896E+00  0.1302E+00
      5.121  0.2929E-01  0.2053E+00  0.1394E+00
      5.256  0.3912E-01  0.2218E+00  0.1495E+00
      5.390  0.3574E-01  0.2186E+00  0.1393E+00
      5.525  0.2088E-01  0.1973E+00  0.1177E+00
      5.659  0.1688E-01  0.1876E+00  0.1074E+00
      5.793  0.2299E-01  0.1924E+00  0.1056E+00
      5.928  0.2805E-01  0.2006E+00  0.1028E+00
      6.062  0.2619E-01  0.2112E+00  0.1024E+00
      6.197  0.1936E-01  0.2101E+00  0.9810E-01
      6.331  0.1491E-01  0.1871E+00  0.8244E-01
      6.466  0.1386E-01  0.1626E+00  0.6387E-01
      6.600  0.1602E-01  0.1722E+00  0.6104E-01
      6.734  0.1792E-01  0.2082E+00  0.7007E-01
      6.869  0.1524E-01  0.2159E+00  0.6987E-01
      7.003  0.1126E-01  0.1670E+00  0.5114E-01
      7.138  0.9151E-02  0.1168E+00  0.3262E-01
      7.272  0.8765E-02  0.1132E+00  0.3068E-01
      7.407  0.1012E-01  0.1343E+00  0.3873E-01
      7.541  0.1078E-01  0.1312E+00  0.4009E-01
      7.675  0.8595E-02  0.9586E-01  0.2922E-01
      7.810  0.5839E-02  0.6459E-01  0.2056E-01
      7.944  0.4966E-02  0.6108E-01  0.3051E-01
      8.079  0.6146E-02  0.7595E-01  0.5952E-01
      8.213  0.7258E-02  0.7546E-01  0.9061E-01
      8.347  0.8919E-02  0.6171E-01  0.1253E+00
      8.482  0.1205E-01  0.5388E-01  0.1573E+00
      8.616  0.1507E-01  0.4677E-01  0.1731E+00
      8.751  0.2046E-01  0.4688E-01  0.1902E+00
      8.885  0.2778E-01  0.5371E-01  0.2124E+00
      9.020  0.3193E-01  0.5321E-01  0.2200E+00
      9.154  0.3653E-01  0.4707E-01  0.2221E+00
      9.288  0.3941E-01  0.5371E-01  0.2202E+00
      9.423  0.3568E-01  0.7234E-01  0.2125E+00
      9.557  0.3299E-01  0.7474E-01  0.2095E+00
      9.692  0.3591E-01  0.6003E-01  0.1965E+00
      9.826  0.3936E-01  0.5051E-01  0.1699E+00
      9.961  0.3402E-01  0.4251E-01  0.1290E+00
     10.095  0.2454E-01  0.3112E-01  0.8554E-01
     10.229  0.2381E-01  0.2547E-01  0.7301E-01
     10.364  0.4007E-01  0.3034E-01  0.1087E+00
     10.498  0.7052E-01  0.4464E-01  0.1874E+00
     10.633  0.8888E-01  0.5881E-01  0.2628E+00
     10.767  0.7471E-01  0.5831E-01  0.2798E+00
     10.902  0.5244E-01  0.4907E-01  0.2571E+00
     11.036  0.4667E-01  0.4664E-01  0.2309E+00
     11.170  0.5079E-01  0.4895E-01  0.2079E+00
     11.305  0.5609E-01  0.4641E-01  0.1929E+00
     11.439  0.6850E-01  0.4049E-01  0.1870E+00
     11.574  0.8926E-01  0.4275E-01  0.1953E+00
     11.708  0.1023E+00  0.5113E-01  0.1997E+00
     11.842  0.1051E+00  0.5485E-01  0.1868E+00
     11.977  0.1055E+00  0.5254E-01  0.1701E+00
     12.111  0.1054E+00  0.5175E-01  0.1616E+00
     12.246  0.1012E+00  0.5443E-01  0.1490E+00
     12.380  0.9687E-01  0.5894E-01  0.1322E+00
     12.515  0.9565E-01  0.6234E-01  0.1179E+00
     12.649  0.8824E-01  0.6757E-01  0.1102E+00
     12.783  0.6985E-01  0.7227E-01  0.1047E+00
     12.918  0.5244E-01  0.7286E-01  0.9546E-01
     13.052  0.4380E-01  0.7813E-01  0.9083E-01
     13.187  0.4089E-01  0.9028E-01  0.9346E-01
     13.321  0.3540E-01  0.9293E-01  0.9158E-01
     13.456  0.2913E-01  0.8638E-01  0.8230E-01
     13.590  0.3207E-01  0.9337E-01  0.8096E-01
     13.724  0.3992E-01  0.1150E+00  0.8802E-01
     13.859  0.4345E-01  0.1287E+00  0.9021E-01
     13.993  0.4229E-01  0.1259E+00  0.8453E-01
     14.128  0.4307E-01  0.1215E+00  0.7865E-01
     14.262  0.4027E-01  0.1179E+00  0.7374E-01
     14.396  0.3443E-01  0.1139E+00  0.6850E-01
     14.531  0.3143E-01  0.1120E+00  0.6441E-01
     14.665  0.3102E-01  0.1171E+00  0.6535E-01
     14.800  0.3541E-01  0.1303E+00  0.6972E-01
     14.934  0.3885E-01  0.1343E+00  0.7011E-01
     15.069  0.3653E-01  0.1342E+00  0.7620E-01
     15.203  0.3030E-01  0.1417E+00  0.8640E-01
     15.337  0.2863E-01  0.1508E+00  0.8655E-01
     15.472  0.3098E-01  0.1613E+00  0.8918E-01
     15.606  0.2858E-01  0.1672E+00  0.9748E-01
     15.741  0.2721E-01  0.1716E+00  0.1044E+00
     15.875  0.3027E-01  0.1754E+00  0.1040E+00
     16.010  0.2991E-01  0.1628E+00  0.8831E-01
     16.144  0.2477E-01  0.1503E+00  0.7457E-01
     16.278  0.1884E-01  0.1547E+00  0.7481E-01
     16.413  0.1638E-01  0.1632E+00  0.7869E-01
     16.547  0.1614E-01  0.1571E+00  0.8016E-01
     16.682  0.2131E-01  0.1392E+00  0.7693E-01
     16.816  0.2859E-01  0.1242E+00  0.6937E-01
     16.950  0.2518E-01  0.1083E+00  0.6019E-01
     17.085  0.1573E-01  0.9178E-01  0.5444E-01
     17.219  0.1447E-01  0.9343E-01  0.5642E-01
     17.354  0.2042E-01  0.1050E+00  0.5562E-01
     17.488  0.2524E-01  0.1063E+00  0.5109E-01
     17.623  0.3032E-01  0.1097E+00  0.5288E-01
     17.757  0.3216E-01  0.1214E+00  0.5729E-01
     17.891  0.2849E-01  0.1263E+00  0.6211E-01
     18.026  0.3248E-01  0.1246E+00  0.6807E-01
     18.160  0.4140E-01  0.1187E+00  0.6922E-01
     18.295  0.4042E-01  0.1082E+00  0.6801E-01
     18.429  0.3330E-01  0.1075E+00  0.7379E-01
     18.564  0.3340E-01  0.1238E+00  0.8660E-01
     18.698  0.3777E-01  0.1316E+00  0.9103E-01
     18.832  0.3505E-01  0.1120E+00  0.7966E-01
     18.967  0.2933E-01  0.1037E+00  0.7734E-01
     19.101  0.3017E-01  0.1266E+00  0.8966E-01
     19.236  0.3756E-01  0.1531E+00  0.9430E-01
     19.370  0.3887E-01  0.1544E+00  0.8417E-01
     19.504  0.3151E-01  0.1261E+00  0.6798E-01
     19.639  0.2691E-01  0.9605E-01  0.6141E-01
     19.773  0.2750E-01  0.8454E-01  0.8157E-01
     19.908  0.2869E-01  0.8519E-01  0.1136E+00
     20.042  0.2604E-01  0.8673E-01  0.1197E+00
     20.177  0.2173E-01  0.8402E-01  0.1176E+00
     20.311  0.2072E-01  0.8339E-01  0.1243E+00
     20.445  0.2367E-01  0.8590E-01  0.1135E+00
     20.580  0.3013E-01  0.8094E-01  0.9353E-01
     20.714  0.4215E-01  0.7062E-01  0.8635E-01
     20.849  0.5874E-01  0.6538E-01  0.1067E+00
     20.983  0.6382E-01  0.6581E-01  0.1319E+00
     21.118  0.4954E-01  0.6928E-01  0.1217E+00
     21.252  0.3753E-01  0.7799E-01  0.1056E+00
     21.386  0.3529E-01  0.8918E-01  0.1090E+00
     21.521  0.3506E-01  0.9906E-01  0.1179E+00
     21.655  0.3552E-01  0.1067E+00  0.1267E+00
     21.790  0.3407E-01  0.1054E+00  0.1262E+00
     21.924  0.3391E-01  0.9928E-01  0.1137E+00
     22.059  0.3845E-01  0.9821E-01  0.9889E-01
     22.193  0.4114E-01  0.1009E+00  0.8889E-01
     22.327  0.3646E-01  0.1014E+00  0.8587E-01
     22.462  0.2917E-01  0.9720E-01  0.8537E-01
     22.596  0.2677E-01  0.9576E-01  0.8898E-01
     22.731  0.2780E-01  0.9235E-01  0.9599E-01
     22.865  0.3109E-01  0.8624E-01  0.9681E-01
     22.999  0.3828E-01  0.9534E-01  0.9630E-01
     23.134  0.4122E-01  0.1132E+00  0.9706E-01
     23.268  0.3741E-01  0.1141E+00  0.9128E-01
     23.403  0.3689E-01  0.1153E+00  0.9150E-01
     23.537  0.3680E-01  0.1228E+00  0.1010E+00
     23.672  0.3207E-01  0.1160E+00  0.1059E+00
     23.806  0.2894E-01  0.1100E+00  0.1152E+00
     23.940  0.2944E-01  0.1098E+00  0.1244E+00
     24.075  0.3073E-01  0.1145E+00  0.1199E+00
     24.209  0.3064E-01  0.1198E+00  0.1118E+00
     24.344  0.3036E-01  0.1138E+00  0.1045E+00
     24.478  0.3068E-01  0.1079E+00  0.1032E+00
     24.613  0.2881E-01  0.1093E+00  0.1179E+00
     24.747  0.2480E-01  0.1076E+00  0.1317E+00
     24.881  0.2081E-01  0.1053E+00  0.1259E+00
     25.016  0.1975E-01  0.1077E+00  0.1108E+00
     25.150  0.2293E-01  0.1080E+00  0.9907E-01
     25.285  0.2784E-01  0.1032E+00  0.9717E-01
     25.419  0.2939E-01  0.9644E-01  0.1114E+00
     25.553  0.2706E-01  0.9531E-01  0.1310E+00
     25.688  0.2620E-01  0.1078E+00  0.1332E+00
     25.822  0.2524E-01  0.1195E+00  0.1119E+00
     25.957  0.2291E-01  0.1115E+00  0.8760E-01
     26.091  0.2363E-01  0.9053E-01  0.7384E-01
     26.226  0.2478E-01  0.7422E-01  0.6550E-01
     26.360  0.2427E-01  0.8479E-01  0.6871E-01
     26.494  0.2273E-01  0.1147E+00  0.7955E-01
     26.629  0.2001E-01  0.1333E+00  0.7828E-01
     26.763  0.1757E-01  0.1241E+00  0.6542E-01
     26.898  0.1790E-01  0.1029E+00  0.5874E-01
     27.032  0.1933E-01  0.8614E-01  0.6462E-01
     27.167  0.1826E-01  0.7264E-01  0.7518E-01
     27.301  0.1594E-01  0.7066E-01  0.8268E-01
     27.435  0.1492E-01  0.8186E-01  0.8586E-01
     27.570  0.1419E-01  0.8803E-01  0.8093E-01
     27.704  0.1435E-01  0.8594E-01  0.7325E-01
     27.839  0.1902E-01  0.8785E-01  0.7400E-01
     27.973  0.2803E-01  0.9171E-01  0.8576E-01
     28.107  0.3488E-01  0.8870E-01  0.9719E-01
     28.242  0.3565E-01  0.8210E-01  0.9851E-01
     28.376  0.3650E-01  0.7899E-01  0.9841E-01
     28.511  0.3960E-01  0.8516E-01  0.1060E+00
     28.645  0.3904E-01  0.9667E-01  0.1114E+00
     28.780  0.3406E-01  0.1051E+00  0.1040E+00
     28.914  0.3456E-01  0.1170E+00  0.9642E-01
     29.048  0.3890E-01  0.1200E+00  0.9659E-01
     29.183  0.3406E-01  0.9702E-01  0.9047E-01
     29.317  0.2681E-01  0.7356E-01  0.7747E-01
     29.452  0.2510E-01  0.6613E-01  0.7065E-01
     29.586  0.2751E-01  0.6555E-01  0.7292E-01
     29.721  0.3094E-01  0.7015E-01  0.8089E-01
     29.855  0.3219E-01  0.7973E-01  0.8530E-01
     29.989  0.3042E-01  0.8419E-01  0.7731E-01
     30.124  0.2540E-01  0.7788E-01  0.6217E-01
     30.258  0.2067E-01  0.7406E-01  0.4763E-01
     30.393  0.1869E-01  0.7736E-01  0.3699E-01
     30.527  0.1585E-01  0.7629E-01  0.3116E-01
     30.661  0.1240E-01  0.6909E-01  0.2873E-01
     30.796  0.1006E-01  0.6733E-01  0.2621E-01
     30.930  0.8888E-02  0.6889E-01  0.2244E-01
     31.065  0.7544E-02  0.6077E-01  0.1683E-01
     31.199  0.5469E-02  0.4663E-01  0.1159E-01
     31.334  0.4519E-02  0.3983E-01  0.1013E-01
     31.468  0.5896E-02  0.4134E-01  0.1162E-01
     31.602  0.7177E-02  0.4209E-01  0.1206E-01
     31.737  0.5531E-02  0.3568E-01  0.8872E-02
     31.871  0.2936E-02  0.2870E-01  0.5026E-02
     32.006  0.1455E-02  0.2665E-01  0.3132E-02
     32.140  0.5796E-03  0.2176E-01  0.1956E-02
     32.275  0.1478E-03  0.1432E-01  0.1097E-02
     32.409  0.2853E-04  0.7706E-02  0.6165E-03
     32.543  0.4420E-05  0.2706E-02  0.2369E-03
     32.678  0.4008E-06  0.4911E-03  0.4515E-04
     32.812  0.1724E-07  0.4100E-04  0.3847E-05
     32.947  0.3340E-09  0.1495E-05  0.1415E-06
     33.081  0.2950E-11  0.2320E-07  0.2203E-08
     33.216  0.1222E-13  0.1510E-09  0.1436E-10
     33.350  0.2411E-16  0.4083E-12  0.3885E-13
     33.484  0.1815E-19  0.4565E-15  0.4346E-16
     33.619  0.0000E+00  0.0000E+00  0.0000E+00
     33.753  0.0000E+00  0.0000E+00  0.0000E+00
     33.888  0.0000E+00  0.0000E+00  0.0000E+00
     34.022  0.0000E+00  0.0000E+00  0.0000E+00
     34.156  0.0000E+00  0.0000E+00  0.0000E+00
     34.291  0.0000E+00  0.0000E+00  0.0000E+00
     34.29088103     -6.03563408  301      6.66651897      1.00000000
     -6.036  0.0000E+00  0.0000E+00  0.0000E+00
     -5.901  0.0000E+00  0.0000E+00  0.0000E+00
     -5.767  0.0000E+00  0.0000E+00  0.0000E+00
     -5.632  0.0000E+00  0.0000E+00  0.0000E+00
     -5.498  0.0000E+00  0.0000E+00  0.0000E+00
     -5.364  0.0000E+00  0.0000E+00  0.0000E+00
     -5.229  0.0000E+00  0.0000E+00  0.0000E+00
     -5.095  0.2166E-15  0.7479E-18  0.2911E-19
     -4.960  0.1971E-12  0.7115E-15  0.2770E-16
     -4.826  0.7480E-10  0.2889E-12  0.1125E-13
     -4.691  0.1202E-07  0.5163E-10  0.2012E-11
     -4.557  0.8339E-06  0.4185E-08  0.1634E-09
     -4.423  0.2574E-04  0.1589E-06  0.6223E-08
     -4.288  0.3678E-03  0.2925E-05  0.1152E-06
     -4.154  0.2567E-02  0.2737E-04  0.1089E-05
     -4.019  0.9468E-02  0.1411E-03  0.5711E-05
     -3.885  0.2088E-01  0.4517E-03  0.1874E-04
     -3.750  0.3245E-01  0.1012E-02  0.4334E-04
     -3.616  0.4138E-01  0.1789E-02  0.7964E-04
     -3.482  0.4896E-01  0.2788E-02  0.1292E-03
     -3.347  0.5512E-01  0.3889E-02  0.1879E-03
     -3.213  0.6011E-01  0.5147E-02  0.2593E-03
     -3.078  0.6685E-01  0.6747E-02  0.3535E-03
     -2.944  0.7186E-01  0.8265E-02  0.4518E-03
     -2.810  0.7453E-01  0.9769E-02  0.5556E-03
     -2.675  0.8228E-01  0.1222E-01  0.7188E-03
     -2.541  0.8993E-01  0.1466E-01  0.8937E-03
     -2.406  0.9236E-01  0.1648E-01  0.1050E-02
     -2.272  0.9963E-01  0.1963E-01  0.1281E-02
     -2.137  0.1148E+00  0.2475E-01  0.1633E-02
     -2.003  0.1310E+00  0.3006E-01  0.2064E-02
     -1.869  0.1352E+00  0.3252E-01  0.2392E-02
     -1.734  0.1305E+00  0.3332E-01  0.2667E-02
     -1.600  0.1290E+00  0.3541E-01  0.3082E-02
     -1.465  0.1286E+00  0.3668E-01  0.3572E-02
     -1.331  0.1140E+00  0.3250E-01  0.3694E-02
     -1.196  0.9728E-01  0.2880E-01  0.3769E-02
     -1.062  0.1009E+00  0.3195E-01  0.4640E-02
     -0.928  0.1156E+00  0.3250E-01  0.6670E-02
     -0.793  0.1423E+00  0.2808E-01  0.1068E-01
     -0.659  0.2069E+00  0.3557E-01  0.1732E-01
     -0.524  0.3129E+00  0.6321E-01  0.2540E-01
     -0.390  0.3742E+00  0.9042E-01  0.2876E-01
     -0.256  0.2952E+00  0.9307E-01  0.2252E-01
     -0.121  0.1589E+00  0.9797E-01  0.1641E-01
      0.013  0.8234E-01  0.1673E+00  0.2420E-01
      0.148  0.6064E-01  0.2908E+00  0.4446E-01
      0.282  0.4946E-01  0.3308E+00  0.5580E-01
      0.417  0.2956E-01  0.2374E+00  0.4888E-01
      0.551  0.1324E-01  0.1452E+00  0.4398E-01
      0.685  0.1059E-01  0.1166E+00  0.5339E-01
      0.820  0.1456E-01  0.1140E+00  0.7117E-01
      0.954  0.1773E-01  0.1075E+00  0.8537E-01
      1.089  0.1804E-01  0.8728E-01  0.7809E-01
      1.223  0.1621E-01  0.5558E-01  0.4734E-01
      1.358  0.1624E-01  0.3108E-01  0.2043E-01
      1.492  0.2388E-01  0.2514E-01  0.1075E-01
      1.626  0.3730E-01  0.3066E-01  0.1000E-01
      1.761  0.4928E-01  0.3789E-01  0.1011E-01
      1.895  0.6590E-01  0.5088E-01  0.1150E-01
      2.030  0.8394E-01  0.6687E-01  0.1456E-01
      2.164  0.8481E-01  0.7090E-01  0.1605E-01
      2.299  0.7549E-01  0.6655E-01  0.1530E-01
      2.433  0.6705E-01  0.6347E-01  0.1364E-01
      2.567  0.5548E-01  0.5879E-01  0.1190E-01
      2.702  0.4568E-01  0.5468E-01  0.1148E-01
      2.836  0.4751E-01  0.5995E-01  0.1350E-01
      2.971  0.5244E-01  0.6646E-01  0.1484E-01
      3.105  0.5093E-01  0.6536E-01  0.1310E-01
      3.239  0.4895E-01  0.6477E-01  0.1169E-01
      3.374  0.5393E-01  0.7338E-01  0.1387E-01
      3.508  0.5607E-01  0.7890E-01  0.1523E-01
      3.643  0.5100E-01  0.7409E-01  0.1319E-01
      3.777  0.5348E-01  0.7894E-01  0.1297E-01
      3.912  0.5711E-01  0.8883E-01  0.1562E-01
      4.046  0.5440E-01  0.9139E-01  0.1752E-01
      4.180  0.4891E-01  0.8728E-01  0.1498E-01
      4.315  0.4173E-01  0.8648E-01  0.1144E-01
      4.449  0.4177E-01  0.1157E+00  0.1352E-01
      4.584  0.5024E-01  0.1658E+00  0.1959E-01
      4.718  0.4871E-01  0.1845E+00  0.2060E-01
      4.853  0.3657E-01  0.1742E+00  0.1674E-01
      4.987  0.3186E-01  0.1693E+00  0.1606E-01
      5.121  0.3876E-01  0.1753E+00  0.2052E-01
      5.256  0.4493E-01  0.1813E+00  0.2608E-01
      5.390  0.3853E-01  0.1811E+00  0.2597E-01
      5.525  0.2789E-01  0.1691E+00  0.2173E-01
      5.659  0.2856E-01  0.1569E+00  0.2194E-01
      5.793  0.3203E-01  0.1538E+00  0.2561E-01
      5.928  0.2951E-01  0.1580E+00  0.2876E-01