    3    3    1    1
  0.1764755E+02  0.4214767E-09  0.4214767E-09  0.4214767E-09  0.5000000E-15
  1.000000000000000E-004
  CAR 
 AuAl2                                   
     17    110     30
 
  0.5000000E-01  0.5000000E-01  0.5000000E-01  0.2000000E-02
    1       -4.035634
    2       -0.121149
    3       -0.101627
    4       -0.101627
    5        0.877421
    6        0.877421
    7        8.727429
    8        9.150540
    9        9.433359
   10        9.433359
   11       10.810116
   12       10.810116
   13       11.167723
   14       12.340528
   15       12.340528
   16       12.368590
   17       13.557786
   18       15.191114
   19       15.191114
   20       18.161118
   21       26.512816
   22       26.512816
   23       26.626208
   24       28.373907
   25       28.565534
   26       28.565534
   27       30.723481
   28       30.723486
   29       31.085709
   30       31.846203
 
  0.1500000E+00  0.5000000E-01  0.5000000E-01  0.6000000E-02
    1       -3.858718
    2       -0.180134
    3       -0.059910
    4       -0.051196
    5        0.848801
    6        0.888696
    7        7.385645
    8        8.144160
    9        9.378138
   10        9.378583
   11       10.819210
   12       11.506155
   13       11.816897
   14       11.843839
   15       12.338874
   16       12.583999
   17       14.759560
   18       15.501153
   19       16.238066
   20       18.853242
   21       24.797774
   22       25.629641
   23       25.720866
   24       28.017779
   25       28.677813
   26       29.680643
   27       30.139238
   28       30.754896
   29       30.821696
   30       31.309760
 
  0.2500000E+00  0.5000000E-01  0.5000000E-01  0.6000000E-02
    1       -3.431600
    2       -0.282131
    3        0.027988
    4        0.033614
    5        0.831126
    6        0.903825
    7        5.259138
    8        7.536591
    9        8.580716
   10        9.614847
   11       10.908004
   12       11.012046
   13       12.067685
   14       12.264828
   15       12.411340
   16       13.612472
   17       16.591010
   18       17.282720
   19       17.666866
   20       20.191700
   21       22.808993
   22       23.843454
   23       23.910432
   24       28.014197
   25       28.866747
   26       28.981502
   27       29.691230
   28       29.900171
   29       31.046862
   30       31.082134
 
  0.3500000E+00  0.5000000E-01  0.5000000E-01  0.6000000E-02
    1       -2.813402
    2       -0.338293
    3        0.105607
    4        0.108674
    5        0.865492
    6        0.948865
    7        3.344884
    8        7.032691
    9        7.778579
   10        9.789225
   11       10.530919
   12       10.672318
   13       11.548132
   14       13.463531
   15       13.511090
   16       14.850720
   17       17.927771
   18       19.170029
   19       19.924857
   20       20.693621
   21       21.410938
   22       22.057406
   23       23.167466
   24       26.529104
   25       27.343915
   26       28.509238
   27       29.558358
   28       30.107943
   29       30.668250
   30       31.853092
 
  0.4500000E+00  0.5000000E-01  0.5000000E-01  0.6000000E-02
    1       -2.196550
    2       -0.197439
    3        0.145723
    4        0.148282
    5        0.947144
    6        1.000581
    7        1.774350
    8        6.743663
    9        7.177668
   10        9.779860
   11       10.399162
   12       10.570405
   13       11.131826
   14       14.770915
   15       14.869123
   16       15.997245
   17       18.165685
   18       19.138986
   19       19.511340
   20       20.995966
   21       21.680537
   22       23.131046
   23       24.462800
   24       25.006566
   25       25.287632
   26       28.431348
   27       29.008766
   28       29.768986
   29       29.933902
   30       30.061693
 
 -0.4500000E+00  0.5000000E-01  0.5000000E-01  0.6000000E-02
    1       -1.989881
    2       -0.014750
    3        0.150946
    4        0.200190
    5        1.002888
    6        1.019955
    7        1.110377
    8        6.774727
    9        6.899651
   10        9.689357
   11       10.512733
   12       10.625485
   13       10.892048
   14       15.219588
   15       15.656086
   16       16.495276
   17       17.615309
   18       18.634057
   19       18.975498
   20       21.872369
   21       22.068080
   22       23.594018
   23       24.049500
   24       24.620035
   25       26.574446
   26       27.040737
   27       28.452696
   28       29.471747
   29       29.739463
   30       29.817426
 
 -0.3500000E+00  0.5000000E-01  0.5000000E-01  0.6000000E-02
    1       -2.379042
    2       -0.279430
    3        0.135968
    4        0.138355
    5        0.922706
    6        0.985444
    7        2.243056
    8        6.988642
    9        7.148121
   10        9.660197
   11       10.566817
   12       10.842825
   13       10.998389
   14       13.918257
   15       15.143321
   16       15.370082
   17       18.594253
   18       18.888605
   19       20.057728
   20       20.932088
   21       21.353014
   22       22.225486
   23       24.347669
   24       25.102024
   25       25.945492
   26       29.009728
   27       29.215168
   28       29.553851
   29       30.085730
   30       30.553316
 
 -0.2500000E+00  0.5000000E-01  0.5000000E-01  0.6000000E-02
    1       -3.032929
    2       -0.334529
    3        0.086542
    4        0.087730
    5        0.844062
    6        0.932790
    7        3.950949
    8        7.389057
    9        7.771876
   10        9.644956
   11       10.625875
   12       11.237342
   13       11.410538
   14       12.598505
   15       13.947108
   16       14.027234
   17       17.609062
   18       18.540794
   19       19.144591
   20       20.825248
   21       21.902552
   22       22.281654
   23       23.230843
   24       27.236761
   25       27.925554
   26       28.711892
   27       29.254052
   28       30.033160
   29       30.934605
   30       31.942695
 
 -0.1500000E+00  0.5000000E-01  0.5000000E-01  0.6000000E-02
    1       -3.599292
    2       -0.250583
    3        0.000262
    4        0.004113
    5        0.826542
    6        0.901403
    7        5.950685
    8        7.995710
    9        8.450893
   10        9.557472
   11       10.875515
   12       11.548798
   13       11.775655
   14       12.018441
   15       12.775575
   16       12.905330
   17       16.222645
   18       16.345457
   19       17.081146
   20       19.753894
   21       23.731515
   22       23.856779
   23       24.883833
   24       27.984218
   25       28.993031
   26       29.523932
   27       29.579644
   28       30.335860
   29       30.403355
   30       31.459358
 
 -0.5000000E-01  0.5000000E-01  0.5000000E-01  0.6000000E-02
    1       -3.946641
    2       -0.156669
    3       -0.075852
    4       -0.074198
    5        0.851827
    6        0.892467
    7        8.105845
    8        8.718883
    9        8.890088
   10        9.369719
   11       10.850301
   12       11.614047
   13       11.680611
   14       11.789507
   15       12.438423
   16       12.464464
   17       14.139579
   18       15.174828
   19       15.845698
   20       18.541982
   21       25.627618
   22       25.681274
   23       26.544291
   24       27.837219
   25       29.026341
   26       29.056476
   27       29.822561
   28       31.124096
   29       31.313772
   30       31.667995
 
  0.1500000E+00  0.1500000E+00  0.5000000E-01  0.6000000E-02
    1       -3.769460
    2       -0.226081
    3       -0.021977
    4       -0.020848
    5        0.802690
    6        0.920982
    7        7.383691
    8        7.950380
    9        8.388828
   10        8.932915
   11       10.930576
   12       11.338268
   13       12.493538
   14       12.551073
   15       12.696292
   16       12.734256
   17       15.030564
   18       15.143082
   19       16.531608
   20       19.366431
   21       24.551393
   22       24.590322
   23       26.501922
   24       27.012191
   25       28.543324
   26       29.496100
   27       29.660564
   28       29.990517
   29       31.583473
   30       32.290881
 
  0.2500000E+00  0.1500000E+00  0.5000000E-01  0.1200000E-01
    1       -3.422925
    2       -0.325347
    3        0.062111
    4        0.064395
    5        0.752187
    6        0.954378
    7        5.945474
    8        6.818130
    9        8.048165
   10        9.157420
   11       10.569558
   12       11.636413
   13       12.044004
   14       12.987606
   15       13.208748
   16       14.154463
   17       15.514460
   18       16.767004
   19       17.548065
   20       20.658267
   21       22.720100
   22       23.501004
   23       25.675707
   24       26.487755
   25       27.871302
   26       28.425639
   27       29.687897
   28       30.609445
   29       30.834150
   30       31.903240
 
  0.3500000E+00  0.1500000E+00  0.5000000E-01  0.1200000E-01
    1       -2.857026
    2       -0.412423
    3        0.139591
    4        0.158011
    5        0.766051
    6        0.994896
    7        3.998044
    8        6.306757
    9        7.309436
   10        9.344580
   11       11.115571
   12       11.580894
   13       11.708159
   14       12.619198
   15       14.242979
   16       15.472718
   17       16.688345
   18       18.894995
   19       19.273100
   20       20.935733
   21       21.630724
   22       22.535896
   23       24.090683
   24       26.226839
   25       26.672055
   26       28.089534
   27       28.988331
   28       30.049293
   29       30.498527
   30       30.987115
 
  0.4500000E+00  0.1500000E+00  0.5000000E-01  0.1200000E-01
    1       -2.200626
    2       -0.384771
    3        0.180116
    4        0.213653
    5        0.886585
    6        1.024485
    7        2.326182
    8        5.979423
    9        6.682258
   10        9.306981
   11       10.906418
   12       11.739877
   13       12.149036
   14       12.765396
   15       15.429715
   16       16.495226
   17       17.707973
   18       18.792996
   19       20.324788
   20       21.215474
   21       21.695169
   22       22.640441
   23       24.042912
   24       24.881328
   25       26.250340
   26       27.629310
   27       28.803953
   28       29.003552
   29       29.456608
   30       29.920918
 
 -0.4500000E+00  0.1500000E+00  0.5000000E-01  0.1200000E-01
    1       -1.811811
    2       -0.202050
    3        0.229980
    4        0.265453
    5        0.968526
    6        1.047630
    7        1.272076
    8        5.754198
    9        6.491457
   10        9.344749
   11       10.647753
   12       11.675862
   13       12.036067
   14       14.290559
   15       15.326862
   16       16.458665
   17       18.125065
   18       19.139436
   19       19.948360
   20       21.325963
   21       21.604660
   22       23.377989
   23       24.373455
   24       25.074659
   25       26.662656
   26       27.344988
   27       28.017758
   28       28.176140
   29       28.527160
   30       29.585927
 
 -0.3500000E+00  0.1500000E+00  0.5000000E-01  0.1200000E-01
    1       -2.020925
    2       -0.315671
    3        0.197006
    4        0.223383
    5        0.908449
    6        1.009959
    7        1.911986
    8        5.651516
    9        6.842942
   10        9.520657
   11       10.528461
   12       11.437183
   13       12.358837
   14       13.741115
   15       15.008761
   16       16.197929
   17       18.170520
   18       19.250083
   19       20.246205
   20       20.767322
   21       22.084613
   22       23.396377
   23       23.798507
   24       25.226900
   25       25.512042
   26       27.313382
   27       28.580430
   28       29.102653
   29       29.496500
   30       29.959559
 
 -0.2500000E+00  0.1500000E+00  0.5000000E-01  0.1200000E-01
    1       -2.641249
    2       -0.407157
    3        0.142308
    4        0.176845
    5        0.798085
    6        1.003009
    7        3.424246
    8        5.813729
    9        7.542228
   10        9.803234
   11       10.536893
   12       11.293556
   13       12.306169
   14       12.845933
   15       13.770102
   16       16.267348
   17       16.815590
   18       19.371383
   19       19.941566
   20       21.033863
   21       21.567716
   22       22.627579
   23       23.526892
   24       25.608011
   25       26.634278
   26       27.692190
   27       28.951072
   28       30.048654
   29       30.430076
   30       31.063721
 
 -0.1500000E+00  0.1500000E+00  0.5000000E-01  0.1200000E-01
    1       -3.258874
    2       -0.342637
    3        0.079865
    4        0.081122
    5        0.771092
    6        0.953736
    7        5.266818
    8        6.238866
    9        8.396201
   10        9.833598
   11       10.730536
   12       11.217752
   13       11.506909
   14       12.694321
   15       13.191517
   16       14.909915
   17       15.762046
   18       17.717906
   19       18.360395
   20       20.886112
   21       21.832194
   22       23.542999
   23       24.724825
   24       26.410099
   25       27.849686
   26       28.387215
   27       29.776854
   28       29.827652
   29       31.369233
   30       31.916840
 
 -0.5000000E-01  0.1500000E+00  0.5000000E-01  0.1200000E-01
    1       -3.683621
    2       -0.239484
    3       -0.013336
    4       -0.004352
    5        0.810982
    6        0.913146
    7        6.662597
    8        7.472886
    9        8.871239
   10        9.454162
   11       10.970560
   12       11.156817
   13       11.775448
   14       12.325597
   15       12.703160
   16       13.236477
   17       15.434282
   18       15.812054
   19       16.930517
   20       19.565528
   21       23.753911
   22       24.596711
   23       25.682847
   24       27.324487
   25       28.641205
   26       29.562365
   27       29.689238
   28       30.388951
   29       30.989047
   30       31.567161
 
  0.2500000E+00  0.2500000E+00  0.5000000E-01  0.6000000E-02
    1       -3.157326
    2       -0.426769
    3        0.158143
    4        0.159545
    5        0.656341
    6        1.007366
    7        5.825830
    8        6.547900
    9        6.689693
   10        8.429390
   11        9.801460
   12       12.808158
   13       13.204159
   14       13.300064
   15       14.648401
   16       14.660147
   17       15.062289
   18       16.894522
   19       17.956836
   20       21.831736
   21       22.405070
   22       22.454049
   23       25.439402
   24       26.177629
   25       26.460586
   26       27.497413
   27       30.117513
   28       30.210962
   29       30.847604
   30       30.851805
 
  0.3500000E+00  0.2500000E+00  0.5000000E-01  0.1200000E-01
    1       -2.657634
    2       -0.528572
    3        0.233176
    4        0.279002
    5        0.637426
    6        1.051559
    7        4.484757
    8        5.609608
    9        6.261270
   10        8.677004
   11        9.777737
   12       12.688927
   13       13.351067
   14       13.807669
   15       15.287289
   16       15.590724
   17       16.198168
   18       18.203139
   19       19.300127
   20       20.904324
   21       21.420434
   22       23.174790
   23       25.031233
   24       25.225102
   25       25.979017
   26       26.430365
   27       28.757451
   28       29.137880
   29       30.219411
   30       30.660078
 
  0.4500000E+00  0.2500000E+00  0.5000000E-01  0.1200000E-01
    1       -2.004201
    2       -0.566983
    3        0.206835
    4        0.360233
    5        0.818406
    6        1.064968
    7        2.887906
    8        5.047715
    9        5.787570
   10        8.842757
   11       10.725073
   12       12.073257
   13       13.396706
   14       13.663882
   15       16.114283
   16       16.892062
   17       17.527782
   18       18.515043
   19       19.858881
   20       20.503766
   21       22.193996
   22       23.564617
   23       24.029597
   24       24.395431
   25       25.559980
   26       27.007984
   27       27.429404
   28       28.020819
   29       28.656033
   30       30.795100
 
 -0.4500000E+00  0.2500000E+00  0.5000000E-01  0.1200000E-01
    1       -1.482110
    2       -0.436908
    3        0.192641
    4        0.391524
    5        0.972262
    6        1.059104
    7        1.735319
    8        4.517636
    9        5.748283
   10        8.940156
   11       11.586974
   12       12.042941
   13       12.970303
   14       14.059156
   15       15.545922
   16       16.900149
   17       18.408049
   18       19.220257
   19       20.336459
   20       21.121403
   21       21.825270
   22       22.747663
   23       24.961940
   24       25.355388
   25       25.632581
   26       26.224306
   27       26.964625
   28       27.480173
   29       28.575466
   30       29.012271
 
 -0.3500000E+00  0.2500000E+00  0.5000000E-01  0.1200000E-01
    1       -1.511149
    2       -0.392946
    3        0.251624
    4        0.385994
    5        0.826347
    6        0.926088
    7        2.010145
    8        4.145815
    9        6.146103
   10        9.156983
   11       11.256589
   12       12.449938
   13       13.195490
   14       14.166470
   15       14.868540
   16       15.499939
   17       19.060906
   18       19.891909
   19       20.278847
   20       21.290110
   21       21.912171
   22       23.734004
   23       24.537499
   24       24.746046
   25       25.417064
   26       25.740643
   27       26.980527
   28       28.225038
   29       29.059821
   30       29.685713
 
 -0.2500000E+00  0.2500000E+00  0.5000000E-01  0.1200000E-01
    1       -2.053696
    2       -0.478499
    3        0.183924
    4        0.324549
    5        0.780103
    6        1.003019
    7        3.111267
    8        4.156673
    9        6.835914
   10        9.546232
   11       10.955788
   12       12.165519
   13       12.428833
   14       13.775163
   15       14.664886
   16       15.590126
   17       18.012926
   18       18.629049
   19       21.396062
   20       21.832617
   21       22.853662
   22       23.214853
   23       23.638745
   24       23.854842
   25       24.653004
   26       26.712807
   27       28.239235
   28       28.821710
   29       29.857529
   30       30.682819
 
 -0.1500000E+00  0.2500000E+00  0.5000000E-01  0.1200000E-01
    1       -2.698144
    2       -0.432414
    3        0.143723
    4        0.197702
    5        0.755665
    6        1.008676
    7        4.039211
    8        5.130702
    9        7.635883
   10       10.042889
   11       10.457223
   12       11.614109
   13       11.822742
   14       13.185742
   15       13.856259
   16       15.891471
   17       16.692348
   18       18.897724
   19       19.972511
   20       20.897248
   21       22.223366
   22       22.763564
   23       23.900108
   24       25.377021
   25       25.910747
   26       28.150754
   27       28.534049
   28       30.023419
   29       30.338525
   30       31.474577
 
 -0.5000000E-01  0.2500000E+00  0.5000000E-01  0.1200000E-01
    1       -3.182906
    2       -0.338529
    3        0.079789
    4        0.081883
    5        0.800117
    6        0.944131
    7        4.607987
    8        6.915844
    9        8.107819
   10        9.694744
   11       10.783728
   12       11.151884
   13       11.872812
   14       12.318716
   15       13.234014
   16       14.503870
   17       16.672267
   18       18.277381
   19       18.400787
   20       20.890296
   21       21.915697
   22       22.894559
   23       23.975177
   24       27.272193
   25       27.730363
   26       28.733189
   27       29.327328
   28       29.972572
   29       31.023732
   30       31.984356
 
  0.3500000E+00  0.3500000E+00  0.5000000E-01  0.6000000E-02
    1       -2.228958
    2       -0.637053
    3        0.360295
    4        0.410303
    5        0.538349
    6        1.103241
    7        3.968943
    8        5.342069
    9        5.422624
   10        8.185534
   11        9.168246
   12       13.952464
   13       14.280696
   14       14.609402
   15       15.133067
   16       16.806733
   17       16.840492
   18       18.041866
   19       20.087683
   20       20.508990
   21       20.844836
   22       23.020111
   23       24.272965
   24       24.283541
   25       26.371071
   26       26.518078
   27       27.193419
   28       27.307735
   29       30.747614
   30       31.682800
 
  0.4500000E+00  0.3500000E+00  0.5000000E-01  0.1200000E-01
    1       -1.619583
    2       -0.703269
    3        0.254334
    4        0.532362
    5        0.732991
    6        1.120378
    7        2.893031
    8        4.627812
    9        5.060718
   10        8.427214
   11        9.339276
   12       13.396925
   13       14.777776
   14       15.328482
   15       15.790203
   16       17.375929
   17       18.097896
   18       18.989117
   19       19.268482
   20       19.896561
   21       22.379885
   22       22.779853
   23       23.037197
   24       24.272809
   25       25.471973
   26       25.604198
   27       26.449755
   28       27.701948
   29       29.861573
   30       31.590529
 
 -0.4500000E+00  0.3500000E+00  0.5000000E-01  0.1200000E-01
    1       -1.043934
    2       -0.619459
    3        0.086713
    4        0.578842
    5        1.022453
    6        1.084766
    7        1.954013
    8        3.813038
    9        5.044931
   10        8.623938
   11       10.415784
   12       12.755485
   13       14.349215
   14       15.434939
   15       16.186427
   16       17.278813
   17       18.404345
   18       19.211243
   19       20.195466
   20       21.140374
   21       21.174420
   22       23.015680
   23       23.926615
   24       24.396146
   25       24.932740
   26       25.154908
   27       26.028587
   28       28.272061
   29       28.858966
   30       30.393321
 
 -0.3500000E+00  0.3500000E+00  0.5000000E-01  0.1200000E-01
    1       -1.012201
    2       -0.385927
    3        0.119539
    4        0.559882
    5        0.735007
    6        0.994158
    7        2.221610
    8        3.110992
    9        5.430579
   10        8.813386
   11       11.857926
   12       12.190807
   13       13.872332
   14       14.311571
   15       15.804292
   16       16.532757
   17       18.651085
   18       19.975901
   19       20.384575
   20       21.674255
   21       22.361603
   22       23.084454
   23       23.980524
   24       24.153747
   25       24.596030
   26       25.266675
   27       27.110565
   28       27.870467
   29       28.997756
   30       29.688083
 
 -0.2500000E+00  0.3500000E+00  0.5000000E-01  0.1200000E-01
    1       -1.435061
    2       -0.460530
    3        0.234743
    4        0.449056
    5        0.789131
    6        0.872303
    7        2.616287
    8        3.371487
    9        6.086562
   10        9.124204
   11       11.530636
   12       12.682576
   13       13.179660
   14       13.885358
   15       15.092229
   16       15.668891
   17       18.102514
   18       20.107048
   19       21.033927
   20       21.904767
   21       22.578416
   22       23.329063
   23       23.734810
   24       24.606968
   25       25.156213
   26       25.356560
   27       26.551422
   28       28.040223
   29       29.736180
   30       29.955239
 
 -0.1500000E+00  0.3500000E+00  0.5000000E-01  0.1200000E-01
    1       -2.040971
    2       -0.424308
    3        0.189258
    4        0.280481
    5        0.834407
    6        1.005914
    7        2.502687
    8        4.870687
    9        6.838236
   10        9.537890
   11       10.718989
   12       11.832147
   13       12.853145
   14       13.523081
   15       14.471590
   16       16.019582
   17       18.099715
   18       19.073189
   19       20.535401
   20       21.698429
   21       22.257020
   22       23.121091
   23       23.741914
   24       24.428738
   25       25.819411
   26       26.290472
   27       28.602146
   28       29.100872
   29       29.559561
   30       30.522416
 
 -0.5000000E-01  0.3500000E+00  0.5000000E-01  0.1200000E-01
    1       -2.531885
    2       -0.355638
    3        0.139380
    4        0.151247
    5        0.862945
    6        0.992865
    7        2.800839
    8        6.522738
    9        7.354864
   10        9.627565
   11       10.630659
   12       10.959241
   13       11.816443
   14       13.061015
   15       14.463757
   16       15.749115
   17       17.810331
   18       19.397281
   19       20.210269
   20       20.944488
   21       21.412828
   22       21.889205
   23       23.842276
   24       25.411846
   25       26.787059
   26       28.043863
   27       29.314576
   28       29.927576
   29       30.237584
   30       30.826895
 
  0.4500000E+00  0.4500000E+00  0.5000000E-01  0.6000000E-02
    1       -1.101491
    2       -0.779956
    3        0.298588
    4        0.642881
    5        0.715204
    6        1.168281
    7        2.191069
    8        4.566598
    9        4.697489
   10        8.073763
   11        8.876247
   12       14.290594
   13       15.539215
   14       15.914027
   15       16.428277
   16       17.772556
   17       17.855705
   18       19.186427
   19       19.968228
   20       20.170426
   21       21.360456
   22       21.978511
   23       23.594740
   24       23.690873
   25       24.107245
   26       24.251603
   27       26.418755
   28       28.963088
   29       29.962260
   30       30.513611
 
 -0.4500000E+00  0.4500000E+00  0.5000000E-01  0.1200000E-01
    1       -0.797930
    2       -0.583762
    3        0.082939
    4        0.700320
    5        1.039657
    6        1.128332
    7        1.538364
    8        4.125215
    9        4.562680
   10        8.333802
   11        9.170310
   12       13.797126
   13       15.874580
   14       16.220515
   15       17.007330
   16       17.086586
   17       17.565143
   18       20.190650
   19       20.397700
   20       20.866718
   21       21.318642
   22       21.761588
   23       22.422693
   24       23.094909
   25       23.850978
   26       25.739621
   27       26.240821
   28       28.293547
   29       29.687937
   30       29.950526
 
 -0.3500000E+00  0.4500000E+00  0.5000000E-01  0.1200000E-01
    1       -0.832956
    2       -0.390490
    3       -0.083969
    4        0.647096
    5        0.970706
    6        1.185339
    7        1.685734
    8        3.490167
    9        4.905965
   10        8.585072
   11       10.354596
   12       12.960613
   13       14.829906
   14       15.289631
   15       16.608499
   16       17.128319
   17       18.474238
   18       19.354927
   19       20.545064
   20       21.547778
   21       21.678008
   22       22.545565
   23       22.739526
   24       23.767416
   25       24.659226
   26       25.021723
   27       27.265479
   28       28.209751
   29       28.924744
   30       29.579131
 
 -0.2500000E+00  0.4500000E+00  0.5000000E-01  0.1200000E-01
    1       -1.181918
    2       -0.427142
    3        0.158717
    4        0.489163
    5        0.853921
    6        1.044517
    7        1.868861
    8        3.744991
    9        5.533258
   10        8.853817
   11       11.922199
   12       11.942639
   13       13.424145
   14       14.667851
   15       15.460494
   16       16.418864
   17       19.313994
   18       19.683174
   19       20.038798
   20       20.918935
   21       22.003349
   22       23.373831
   23       24.238191
   24       24.731430
   25       25.345749
   26       25.776612
   27       26.780138
   28       27.438867
   29       28.697821
   30       29.249797
 
 -0.1500000E+00  0.4500000E+00  0.5000000E-01  0.1200000E-01
    1       -1.643270
    2       -0.292310
    3        0.273357
    4        0.304097
    5        0.892632
    6        0.998937
    7        1.526966
    8        4.965823
    9        6.273055
   10        9.226482
   11       10.922739
   12       12.079398
   13       12.837089
   14       14.313054
   15       14.722542
   16       16.054255
   17       18.889541
   18       19.956810
   19       20.065054
   20       20.613489
   21       21.597524
   22       23.912112
   23       24.076870
   24       25.421155
   25       26.012720
   26       26.960134
   27       27.366536
   28       27.911778
   29       28.603759
   30       29.416537
 
 -0.5000000E-01  0.4500000E+00  0.5000000E-01  0.1200000E-01
    1       -2.001544
    2       -0.161723
    3        0.175898
    4        0.203126
    5        0.972869
    6        1.013068
    7        1.421757
    8        6.358582
    9        6.851562
   10        9.541219
   11       10.486276
   12       11.054577
   13       11.435356
   14       14.496566
   15       15.521736
   16       16.329100
   17       18.006621
   18       18.691277
   19       19.763921
   20       21.112023
   21       22.072305
   22       23.486137
   23       24.162983
   24       24.773466
   25       26.014589
   26       27.733638
   27       28.609700
   28       29.001986
   29       29.472051
   30       29.768076
 
 -0.4500000E+00 -0.4500000E+00  0.5000000E-01  0.6000000E-02
    1       -0.812230
    2       -0.649026
    3        0.251547
    4        0.704261
    5        0.808145
    6        1.181393
    7        1.592350
    8        4.399818
    9        4.538520
   10        8.053405
   11        8.823344
   12       14.316389
   13       16.179234
   14       16.514462
   15       17.007174
   16       17.258862
   17       17.314416
   18       19.834839
   19       20.520988
   20       20.807129
   21       21.223522
   22       21.589472
   23       22.649417
   24       22.665245
   25       23.499958
   26       25.266070
   27       26.390664
   28       28.090708
   29       30.337659
   30       30.463387
 
 -0.3500000E+00 -0.4500000E+00  0.5000000E-01  0.1200000E-01
    1       -1.058748
    2       -0.757357
    3        0.186560
    4        0.638034