Your VASP job starts at  Mon Dec 18 17:20:40 CST 2017 
 running on   12 total cores
 distrk:  each k-point on   12 cores,    1 groups
 distr:  one band on   12 cores,    1 groups
 using from now: INCAR     
 vasp.5.3.5 31Mar14 (build Apr 24 2016 17:13:53) complex                        
  
 POSCAR found type information on POSCAR  Au Al
 POSCAR found :  2 types and       3 ions
 scaLAPACK will be used

 ----------------------------------------------------------------------------- 
|                                                                             |
|           W    W    AA    RRRRR   N    N  II  N    N   GGGG   !!!           |
|           W    W   A  A   R    R  NN   N  II  NN   N  G    G  !!!           |
|           W    W  A    A  R    R  N N  N  II  N N  N  G       !!!           |
|           W WW W  AAAAAA  RRRRR   N  N N  II  N  N N  G  GGG   !            |
|           WW  WW  A    A  R   R   N   NN  II  N   NN  G    G                |
|           W    W  A    A  R    R  N    N  II  N    N   GGGG   !!!           |
|                                                                             |
|      For optimal performance we recommend to set                            |
|        NCORE= 4 - approx SQRT( number of cores)                             |
|      NCORE specifies how many cores store one orbital (NPAR=cpu/NCORE).     |
|      This setting can  greatly improve the performance of VASP for DFT.     |
|      The default, NPAR=number of cores might be grossly inefficient         |
|      on modern multi-core architectures or massively parallel machines.     |
|      Do your own testing !!!!                                               |
|      Unfortunately you need to use the default for GW and RPA calculations. |
|      (for HF NCORE is supported but not extensively tested yet)             |
|                                                                             |
 ----------------------------------------------------------------------------- 

 LDA part: xc-table for Ceperly-Alder, standard interpolation
 POSCAR, INCAR and KPOINTS ok, starting setup
 WARNING: small aliasing (wrap around) errors must be expected
 FFT: planning ...
 WAVECAR not read
 entering main loop
       N       E                     dE             d eps       ncg     rms          rms(c)
DAV:   1     0.511663801451E+02    0.51166E+02   -0.37609E+03  7174   0.250E+02
DAV:   2    -0.139195578466E+02   -0.65086E+02   -0.55240E+02  7932   0.955E+01
DAV:   3    -0.156066286360E+02   -0.16871E+01   -0.16774E+01  8010   0.151E+01
DAV:   4    -0.156138174952E+02   -0.71889E-02   -0.71882E-02  7572   0.111E+00
DAV:   5    -0.156138863706E+02   -0.68875E-04   -0.68875E-04  8220   0.107E-01    0.735E+00
DAV:   6    -0.144006368623E+02    0.12132E+01   -0.20442E+00  8260   0.142E+01    0.149E+00
DAV:   7    -0.143003880239E+02    0.10025E+00   -0.19011E-01  7588   0.322E+00    0.102E+00
DAV:   8    -0.142570044035E+02    0.43384E-01   -0.17641E-02  7576   0.439E-01    0.119E-01
DAV:   9    -0.142564917782E+02    0.51263E-03   -0.90516E-04  7680   0.251E-01    0.527E-02
DAV:  10    -0.142565091181E+02   -0.17340E-04   -0.12637E-04  7466   0.619E-02
   1 F= -.14256509E+02 E0= -.14246469E+02  d E =-.200800E-01
 writing wavefunctions
 optical routines
 imaginary and real dielectric function
 recalculating local potential from charge density
 direction            1
 direction            2
 direction            3
 nb_tot:    30
 nb_tot:    30
 nb_tot:    30
 nb_tot:    30
 nb_tot:    30
 nb_tot:    30
 nb_tot:    30
 nb_tot:    30
 nb_tot:    30
 nb_tot:    30
 nb_tot:    30
 nb_tot:    30
 nb_tot:    30
 nb_tot:    30
 nb_tot:    30
 nb_tot:    30
 nb_tot:    30
 nb_tot:    30
 nb_tot:    30
 nb_tot:    30
 nb_tot:    30
 nb_tot:    30
 nb_tot:    30
 nb_tot:    30
 nb_tot:    30
 nb_tot:    30
 nb_tot:    30
 nb_tot:    30
 nb_tot:    30
 nb_tot:    30
 nb_tot:    30
 nb_tot:    30
 nb_tot:    30
 nb_tot:    30
 nb_tot:    30
 nb_tot:    30
 nb_tot:    30
 nb_tot:    30
 nb_tot:    30
 nb_tot:    30
 nb_tot:    30
 nb_tot:    30
 nb_tot:    30
 nb_tot:    30
 nb_tot:    30
 nb_tot:    30
 nb_tot:    30
 nb_tot:    30
 nb_tot:    30
 nb_tot:    30
 nb_tot:    30
 nb_tot:    30
 nb_tot:    30
 nb_tot:    30
 nb_tot:    30
 nb_tot:    30
 nb_tot:    30
 nb_tot:    30
 nb_tot:    30
 nb_tot:    30
 nb_tot:    30
 nb_tot:    30
 nb_tot:    30
 nb_tot:    30
 nb_tot:    30
 nb_tot:    30
 nb_tot:    30
 nb_tot:    30
 nb_tot:    30
 nb_tot:    30
 nb_tot:    30
 nb_tot:    30
 nb_tot:    30
 nb_tot:    30
 nb_tot:    30
 nb_tot:    30
 nb_tot:    30
 nb_tot:    30
 nb_tot:    30
 nb_tot:    30
 nb_tot:    30
 nb_tot:    30
 nb_tot:    30
 nb_tot:    30
 nb_tot:    30
 nb_tot:    30
 nb_tot:    30
 nb_tot:    30
 nb_tot:    30
 nb_tot:    30
 nb_tot:    30
 nb_tot:    30
 nb_tot:    30
 nb_tot:    30
 nb_tot:    30
 nb_tot:    30
 nb_tot:    30
 nb_tot:    30
 nb_tot:    30
 nb_tot:    30
 nb_tot:    30
 nb_tot:    30
 nb_tot:    30
 nb_tot:    30
 nb_tot:    30
 nb_tot:    30
 nb_tot:    30
 nb_tot:    30
 nb_tot:    30
 nb_tot:    30
 nb_tot:    30
 nb_tot:    30
 nb_tot:    30
 nb_tot:    30
 nb_tot:    30
 nb_tot:    30
 nb_tot:    30
 nb_tot:    30
 nb_tot:    30
 nb_tot:    30
 nb_tot:    30
 nb_tot:    30
 nb_tot:    30
 nb_tot:    30
 nb_tot:    30
 nb_tot:    30
 nb_tot:    30
 nb_tot:    30
 nb_tot:    30
 nb_tot:    30
 nb_tot:    30
 nb_tot:    30
 nb_tot:    30
 nb_tot:    30
 nb_tot:    30
 nb_tot:    30
 nb_tot:    30
 nb_tot:    30
 nb_tot:    30
 nb_tot:    30
 nb_tot:    30
 nb_tot:    30
 nb_tot:    30
 nb_tot:    30
 nb_tot:    30
 nb_tot:    30
 nb_tot:    30
 nb_tot:    30
 nb_tot:    30
 nb_tot:    30
 nb_tot:    30
 nb_tot:    30
 nb_tot:    30
 nb_tot:    30
 nb_tot:    30
 nb_tot:    30
 nb_tot:    30
 nb_tot:    30
 nb_tot:    30
 nb_tot:    30
 nb_tot:    30
 nb_tot:    30
 nb_tot:    30
 nb_tot:    30
 nb_tot:    30
 nb_tot:    30
 nb_tot:    30
 nb_tot:    30
 nb_tot:    30
 nb_tot:    30
 nb_tot:    30
 nb_tot:    30
 nb_tot:    30
 nb_tot:    30
 nb_tot:    30
 nb_tot:    30
 nb_tot:    30
 nb_tot:    30
 nb_tot:    30
 nb_tot:    30
 nb_tot:    30
 nb_tot:    30
 nb_tot:    30
 nb_tot:    30
 nb_tot:    30
 nb_tot:    30
 nb_tot:    30
 nb_tot:    30
 nb_tot:    30
 nb_tot:    30
 nb_tot:    30
 nb_tot:    30
 nb_tot:    30
 nb_tot:    30
 nb_tot:    30
 nb_tot:    30
 nb_tot:    30
 nb_tot:    30
 nb_tot:    30
 nb_tot:    30
 nb_tot:    30
 nb_tot:    30
 nb_tot:    30
 nb_tot:    30
 nb_tot:    30
 nb_tot:    30
 nb_tot:    30
 nb_tot:    30
 nb_tot:    30
 nb_tot:    30
 nb_tot:    30
 nb_tot:    30
 nb_tot:    30
 nb_tot:    30
 nb_tot:    30
 nb_tot:    30
 nb_tot:    30
 nb_tot:    30
 nb_tot:    30
 nb_tot:    30
 nb_tot:    30
 nb_tot:    30
 nb_tot:    30
 nb_tot:    30
 nb_tot:    30
 nb_tot:    30
 nb_tot:    30
 nb_tot:    30
 nb_tot:    30
 nb_tot:    30
 nb_tot:    30
 nb_tot:    30
 nb_tot:    30
 nb_tot:    30
 nb_tot:    30
 nb_tot:    30
 nb_tot:    30
 nb_tot:    30
 nb_tot:    30
 nb_tot:    30
 nb_tot:    30
 nb_tot:    30
 nb_tot:    30
 nb_tot:    30
 nb_tot:    30
 nb_tot:    30
 nb_tot:    30
 nb_tot:    30
 nb_tot:    30
 nb_tot:    30
 nb_tot:    30
 nb_tot:    30
 nb_tot:    30
 nb_tot:    30
 nb_tot:    30
 nb_tot:    30
 nb_tot:    30
 nb_tot:    30
 nb_tot:    30
 nb_tot:    30
 nb_tot:    30
 nb_tot:    30
 nb_tot:    30
 nb_tot:    30
 nb_tot:    30
 nb_tot:    30
 nb_tot:    30
 nb_tot:    30
 nb_tot:    30
 nb_tot:    30
 nb_tot:    30
 nb_tot:    30
 nb_tot:    30
 nb_tot:    30
 nb_tot:    30
 nb_tot:    30
 nb_tot:    30
 nb_tot:    30
 nb_tot:    30
 nb_tot:    30
 nb_tot:    30
 nb_tot:    30
 nb_tot:    30
 nb_tot:    30
 nb_tot:    30
 nb_tot:    30
 nb_tot:    30
 nb_tot:    30
 nb_tot:    30
 nb_tot:    30
 nb_tot:    30
 nb_tot:    30
 nb_tot:    30
 nb_tot:    30
 nb_tot:    30
 nb_tot:    30
 nb_tot:    30
 nb_tot:    30
 nb_tot:    30
 nb_tot:    30
 nb_tot:    30
 nb_tot:    30
 nb_tot:    30
 nb_tot:    30
 nb_tot:    30
 nb_tot:    30
 nb_tot:    30
 nb_tot:    30
 nb_tot:    30
 nb_tot:    30
 nb_tot:    30
 nb_tot:    30
 nb_tot:    30
 nb_tot:    30
 nb_tot:    30
 nb_tot:    30
 nb_tot:    30
 nb_tot:    30
 nb_tot:    30
 nb_tot:    30
 nb_tot:    30
 nb_tot:    30
 nb_tot:    30
 nb_tot:    30
 nb_tot:    30
 nb_tot:    30
 nb_tot:    30
 nb_tot:    30
 nb_tot:    30
 nb_tot:    30
 nb_tot:    30
 nb_tot:    30
 nb_tot:    30
 nb_tot:    30
 nb_tot:    30
 nb_tot:    30
 nb_tot:    30
 nb_tot:    30
 nb_tot:    30
 nb_tot:    30
 nb_tot:    30
 nb_tot:    30
 nb_tot:    30
 nb_tot:    30
 nb_tot:    30
 nb_tot:    30
 nb_tot:    30
 nb_tot:    30
 nb_tot:    30
 nb_tot:    30
 nb_tot:    30
 nb_tot:    30
 nb_tot:    30
 nb_tot:    30
 nb_tot:    30
 nb_tot:    30
 nb_tot:    30
 nb_tot:    30
 nb_tot:    30
 nb_tot:    30
 nb_tot:    30
 nb_tot:    30
 nb_tot:    30
 nb_tot:    30
 nb_tot:    30
 nb_tot:    30
 nb_tot:    30
 nb_tot:    30
 nb_tot:    30
 nb_tot:    30
 nb_tot:    30
 nb_tot:    30
 nb_tot:    30
 nb_tot:    30
 nb_tot:    30
 nb_tot:    30
 nb_tot:    30
 nb_tot:    30
 nb_tot:    30
 nb_tot:    30
 nb_tot:    30
 nb_tot:    30
 nb_tot:    30
 nb_tot:    30
 nb_tot:    30
 nb_tot:    30
 nb_tot:    30
 nb_tot:    30
 nb_tot:    30
 nb_tot:    30
 nb_tot:    30
 nb_tot:    30
 nb_tot:    30
 nb_tot:    30
 nb_tot:    30
 nb_tot:    30
 nb_tot:    30
 nb_tot:    30
 nb_tot:    30
 nb_tot:    30
 nb_tot:    30
 nb_tot:    30
 nb_tot:    30
 nb_tot:    30
 nb_tot:    30
 nb_tot:    30
 nb_tot:    30
 nb_tot:    30
 nb_tot:    30
 nb_tot:    30
 nb_tot:    30
 nb_tot:    30
 nb_tot:    30
 nb_tot:    30
 nb_tot:    30
 nb_tot:    30
 nb_tot:    30
 nb_tot:    30
 nb_tot:    30
 nb_tot:    30
 nb_tot:    30
 nb_tot:    30
 nb_tot:    30
 nb_tot:    30
 nb_tot:    30
 nb_tot:    30
 nb_tot:    30
 nb_tot:    30
 nb_tot:    30
 nb_tot:    30
 nb_tot:    30
 nb_tot:    30
 nb_tot:    30
 nb_tot:    30
 nb_tot:    30
 nb_tot:    30
 nb_tot:    30
 nb_tot:    30
 nb_tot:    30
 nb_tot:    30
 nb_tot:    30
 nb_tot:    30
 nb_tot:    30
 nb_tot:    30
 nb_tot:    30
 nb_tot:    30
 nb_tot:    30
 nb_tot:    30
 nb_tot:    30
 nb_tot:    30
 nb_tot:    30
 nb_tot:    30
 nb_tot:    30
 nb_tot:    30
 nb_tot:    30
 nb_tot:    30
 nb_tot:    30
 nb_tot:    30
 nb_tot:    30
 nb_tot:    30
 nb_tot:    30
 nb_tot:    30
 nb_tot:    30
 nb_tot:    30
 nb_tot:    30
 nb_tot:    30
 nb_tot:    30
 nb_tot:    30
 nb_tot:    30
 nb_tot:    30
 nb_tot:    30
 nb_tot:    30
 nb_tot:    30
 nb_tot:    30
 nb_tot:    30
 nb_tot:    30
 nb_tot:    30
 nb_tot:    30
 nb_tot:    30
 nb_tot:    30
 nb_tot:    30
 nb_tot:    30
 nb_tot:    30
 nb_tot:    30
 nb_tot:    30
 nb_tot:    30
 nb_tot:    30
 nb_tot:    30
 nb_tot:    30
 nb_tot:    30
 nb_tot:    30
 nb_tot:    30
 nb_tot:    30
 nb_tot:    30
 nb_tot:    30
 nb_tot:    30
 nb_tot:    30
 nb_tot:    30
 nb_tot:    30
 nb_tot:    30
 nb_tot:    30
 nb_tot:    30
 nb_tot:    30
 nb_tot:    30
 nb_tot:    30
 nb_tot:    30
 nb_tot:    30
 nb_tot:    30
 nb_tot:    30
 nb_tot:    30
 nb_tot:    30
 nb_tot:    30
 nb_tot:    30
 nb_tot:    30
 nb_tot:    30
 nb_tot:    30
 nb_tot:    30
 nb_tot:    30
 nb_tot:    30
 nb_tot:    30
 nb_tot:    30
 nb_tot:    30
 nb_tot:    30
 nb_tot:    30
 nb_tot:    30
 nb_tot:    30
 nb_tot:    30
 nb_tot:    30
 nb_tot:    30
 nb_tot:    30
 nb_tot:    30
 nb_tot:    30
 nb_tot:    30
 nb_tot:    30
 nb_tot:    30
 nb_tot:    30
 nb_tot:    30
 nb_tot:    30
 nb_tot:    30
 nb_tot:    30
 nb_tot:    30
 nb_tot:    30
 nb_tot:    30
 nb_tot:    30
 nb_tot:    30
 nb_tot:    30
 nb_tot:    30
 nb_tot:    30
 nb_tot:    30
 nb_tot:    30
 nb_tot:    30
 nb_tot:    30
 nb_tot:    30
 nb_tot:    30
 nb_tot:    30
 nb_tot:    30
 nb_tot:    30
 nb_tot:    30
 nb_tot:    30
 nb_tot:    30
 nb_tot:    30
 nb_tot:    30
 nb_tot:    30
 nb_tot:    30
 nb_tot:    30
 nb_tot:    30
 nb_tot:    30
 nb_tot:    30
 nb_tot:    30
 nb_tot:    30
 nb_tot:    30
 nb_tot:    30
 nb_tot:    30
 nb_tot:    30
 nb_tot:    30
 nb_tot:    30
 nb_tot:    30
 nb_tot:    30
 nb_tot:    30
 nb_tot:    30
 nb_tot:    30
 nb_tot:    30
 nb_tot:    30
 nb_tot:    30
 nb_tot:    30
 nb_tot:    30
 nb_tot:    30
 nb_tot:    30
 nb_tot:    30
 nb_tot:    30
 nb_tot:    30
 nb_tot:    30
 nb_tot:    30
 nb_tot:    30
 nb_tot:    30
 nb_tot:    30
 nb_tot:    30
 nb_tot:    30
 nb_tot:    30
 nb_tot:    30
 nb_tot:    30
 nb_tot:    30
 nb_tot:    30
 nb_tot:    30
 nb_tot:    30
 nb_tot:    30
 nb_tot:    30
 nb_tot:    30
 nb_tot:    30
 nb_tot:    30
 nb_tot:    30
 nb_tot:    30
 nb_tot:    30
 nb_tot:    30
 nb_tot:    30
 nb_tot:    30
 nb_tot:    30
 nb_tot:    30
 nb_tot:    30
 nb_tot:    30
 nb_tot:    30
 nb_tot:    30
 nb_tot:    30
 nb_tot:    30
 nb_tot:    30
 nb_tot:    30
 nb_tot:    30
 nb_tot:    30
 nb_tot:    30
 nb_tot:    30
 nb_tot:    30
 nb_tot:    30
 nb_tot:    30
 nb_tot:    30
 nb_tot:    30
 nb_tot:    30
 nb_tot:    30
 nb_tot:    30
 nb_tot:    30
 nb_tot:    30
 nb_tot:    30
 nb_tot:    30
 nb_tot:    30
 nb_tot:    30
 nb_tot:    30
 nb_tot:    30
 nb_tot:    30
 nb_tot:    30
 nb_tot:    30
 nb_tot:    30
 nb_tot:    30
 nb_tot:    30
 nb_tot:    30
 nb_tot:    30
 nb_tot:    30
 nb_tot:    30
 nb_tot:    30
 nb_tot:    30
 nb_tot:    30
 nb_tot:    30
 nb_tot:    30
 nb_tot:    30
 nb_tot:    30
 nb_tot:    30
 nb_tot:    30
 nb_tot:    30
 nb_tot:    30
 nb_tot:    30
 nb_tot:    30
 nb_tot:    30
 nb_tot:    30
 nb_tot:    30
 nb_tot:    30
 nb_tot:    30
 nb_tot:    30
 nb_tot:    30
 nb_tot:    30
 nb_tot:    30
 nb_tot:    30
 nb_tot:    30
 nb_tot:    30
 nb_tot:    30
 nb_tot:    30
 nb_tot:    30
 nb_tot:    30
 nb_tot:    30
 nb_tot:    30
 nb_tot:    30
 nb_tot:    30
 nb_tot:    30
 nb_tot:    30
 nb_tot:    30
 nb_tot:    30
 nb_tot:    30
 nb_tot:    30
 nb_tot:    30
 nb_tot:    30
 nb_tot:    30
 nb_tot:    30
 nb_tot:    30
 nb_tot:    30
 nb_tot:    30
 nb_tot:    30
 nb_tot:    30
 nb_tot:    30
 nb_tot:    30
 nb_tot:    30
 nb_tot:    30
 nb_tot:    30
 nb_tot:    30
 nb_tot:    30
 nb_tot:    30
 nb_tot:    30
 nb_tot:    30
 nb_tot:    30
 nb_tot:    30
 nb_tot:    30
 nb_tot:    30
 nb_tot:    30
 nb_tot:    30
 nb_tot:    30
 nb_tot:    30
 nb_tot:    30
 nb_tot:    30
 nb_tot:    30
 nb_tot:    30
 nb_tot:    30
 nb_tot:    30
 nb_tot:    30
 nb_tot:    30
 nb_tot:    30
 nb_tot:    30
 nb_tot:    30
 nb_tot:    30
 nb_tot:    30
 nb_tot:    30
 nb_tot:    30
 nb_tot:    30
 nb_tot:    30
 nb_tot:    30
 nb_tot:    30
 nb_tot:    30
 nb_tot:    30
 nb_tot:    30
 nb_tot:    30
 nb_tot:    30
 nb_tot:    30
 nb_tot:    30
 nb_tot:    30
 nb_tot:    30
 nb_tot:    30
 nb_tot:    30
 nb_tot:    30
 nb_tot:    30
 nb_tot:    30
 nb_tot:    30
 nb_tot:    30
 nb_tot:    30
 nb_tot:    30
 nb_tot:    30
 nb_tot:    30
 nb_tot:    30
 nb_tot:    30
 nb_tot:    30
 nb_tot:    30
 nb_tot:    30
 nb_tot:    30
 nb_tot:    30
 nb_tot:    30
 nb_tot:    30
 nb_tot:    30
 nb_tot:    30
 nb_tot:    30
 nb_tot:    30
 nb_tot:    30
 nb_tot:    30
 nb_tot:    30
 nb_tot:    30
 nb_tot:    30
 nb_tot:    30
 nb_tot:    30
 nb_tot:    30
 nb_tot:    30
 nb_tot:    30
 nb_tot:    30
 nb_tot:    30
 nb_tot:    30
 nb_tot:    30
 nb_tot:    30
 nb_tot:    30
 nb_tot:    30
 nb_tot:    30
 nb_tot:    30
 nb_tot:    30
 nb_tot:    30
 nb_tot:    30
 nb_tot:    30
 nb_tot:    30
 nb_tot:    30
 nb_tot:    30
 nb_tot:    30
 nb_tot:    30
 nb_tot:    30
 nb_tot:    30
 nb_tot:    30
 nb_tot:    30
 nb_tot:    30
 nb_tot:    30
 nb_tot:    30
 nb_tot:    30
 nb_tot:    30
 nb_tot:    30
 nb_tot:    30
 nb_tot:    30
 nb_tot:    30
 nb_tot:    30
 nb_tot:    30
 nb_tot:    30
 nb_tot:    30
 nb_tot:    30
 nb_tot:    30
 nb_tot:    30
 nb_tot:    30
 nb_tot:    30
 nb_tot:    30
 nb_tot:    30
 nb_tot:    30
 nb_tot:    30
 nb_tot:    30
 nb_tot:    30
 nb_tot:    30
 nb_tot:    30
 nb_tot:    30
 nb_tot:    30
 nb_tot:    30
 nb_tot:    30
 nb_tot:    30
 nb_tot:    30
 nb_tot:    30
 nb_tot:    30
 nb_tot:    30
 nb_tot:    30
 nb_tot:    30
 nb_tot:    30
 nb_tot:    30
 nb_tot:    30
 nb_tot:    30
 nb_tot:    30
 nb_tot:    30
 nb_tot:    30
 nb_tot:    30
 nb_tot:    30
 nb_tot:    30
 nb_tot:    30
 nb_tot:    30
 nb_tot:    30
 nb_tot:    30
 nb_tot:    30
 nb_tot:    30
 nb_tot:    30
 nb_tot:    30
 nb_tot:    30
 nb_tot:    30
 nb_tot:    30
 nb_tot:    30
 nb_tot:    30
 nb_tot:    30
 nb_tot:    30
 nb_tot:    30
 nb_tot:    30
 nb_tot:    30
 nb_tot:    30
 nb_tot:    30
 nb_tot:    30
 nb_tot:    30
 nb_tot:    30
 nb_tot:    30
 nb_tot:    30
 nb_tot:    30
 nb_tot:    30
 nb_tot:    30
 nb_tot:    30
 nb_tot:    30
 nb_tot:    30
 nb_tot:    30
 nb_tot:    30
 nb_tot:    30
 nb_tot:    30
 nb_tot:    30
 nb_tot:    30
 nb_tot:    30
 nb_tot:    30
 nb_tot:    30
 nb_tot:    30
 nb_tot:    30
 nb_tot:    30
 nb_tot:    30
 nb_tot:    30
 nb_tot:    30
 nb_tot:    30
 nb_tot:    30
 nb_tot:    30
 nb_tot:    30
 nb_tot:    30
 nb_tot:    30
 nb_tot:    30
 nb_tot:    30
 nb_tot:    30
 nb_tot:    30
 nb_tot:    30
 nb_tot:    30
 nb_tot:    30
 nb_tot:    30
 nb_tot:    30
 nb_tot:    30
 nb_tot:    30
 nb_tot:    30
 nb_tot:    30
 nb_tot:    30
 nb_tot:    30
 nb_tot:    30
 nb_tot:    30
 nb_tot:    30
 nb_tot:    30
 nb_tot:    30
 nb_tot:    30
 nb_tot:    30
 nb_tot:    30
 nb_tot:    30
 nb_tot:    30
 nb_tot:    30
 nb_tot:    30
 nb_tot:    30
 nb_tot:    30
 nb_tot:    30
 nb_tot:    30
 nb_tot:    30
 nb_tot:    30
 nb_tot:    30
 nb_tot:    30
 nb_tot:    30
 nb_tot:    30
 nb_tot:    30
 nb_tot:    30
 nb_tot:    30
 nb_tot:    30
 nb_tot:    30
 nb_tot:    30
 nb_tot:    30
 nb_tot:    30
 nb_tot:    30
 nb_tot:    30
 nb_tot:    30
 nb_tot:    30
 nb_tot:    30
 nb_tot:    30
 nb_tot:    30
 nb_tot:    30
 nb_tot:    30
 nb_tot:    30
 nb_tot:    30
 nb_tot:    30
 nb_tot:    30
 nb_tot:    30
 nb_tot:    30
 nb_tot:    30
 nb_tot:    30
 nb_tot:    30
 nb_tot:    30
 nb_tot:    30
 nb_tot:    30
 nb_tot:    30
 nb_tot:    30
 nb_tot:    30
 nb_tot:    30
 nb_tot:    30
 nb_tot:    30
 nb_tot:    30
 nb_tot:    30
 nb_tot:    30
 nb_tot:    30
 nb_tot:    30
 nb_tot:    30
 nb_tot:    30
 nb_tot:    30
 nb_tot:    30
 nb_tot:    30
 nb_tot:    30
 nb_tot:    30
 nb_tot:    30
 nb_tot:    30
 nb_tot:    30
 nb_tot:    30
 nb_tot:    30
 nb_tot:    30
 nb_tot:    30
 nb_tot:    30
 nb_tot:    30
 nb_tot:    30
 nb_tot:    30
 nb_tot:    30
 nb_tot:    30
 nb_tot:    30
 nb_tot:    30
 nb_tot:    30
 nb_tot:    30
 nb_tot:    30
 nb_tot:    30
 nb_tot:    30
 nb_tot:    30
 nb_tot:    30
 nb_tot:    30
 nb_tot:    30
 nb_tot:    30
 nb_tot:    30
 nb_tot:    30
 nb_tot:    30
 nb_tot:    30
 nb_tot:    30
 nb_tot:    30
 nb_tot:    30
 nb_tot:    30
 nb_tot:    30
 nb_tot:    30
 nb_tot:    30
 nb_tot:    30
 nb_tot:    30
 nb_tot:    30
 nb_tot:    30
 nb_tot:    30
 nb_tot:    30
 nb_tot:    30
 nb_tot:    30
 nb_tot:    30
 nb_tot:    30
 nb_tot:    30
 nb_tot:    30
 nb_tot:    30
 nb_tot:    30
 nb_tot:    30
 nb_tot:    30
 nb_tot:    30
 nb_tot:    30
 nb_tot:    30
 nb_tot:    30
 nb_tot:    30
 nb_tot:    30
 nb_tot:    30
 nb_tot:    30
 nb_tot:    30
 nb_tot:    30
 nb_tot:    30
 nb_tot:    30
 nb_tot:    30
 nb_tot:    30
 nb_tot:    30
 nb_tot:    30
 nb_tot:    30
 nb_tot:    30
 nb_tot:    30
 nb_tot:    30
 nb_tot:    30
 nb_tot:    30
 nb_tot:    30
 nb_tot:    30
 nb_tot:    30
 nb_tot:    30
 nb_tot:    30
 nb_tot:    30
 nb_tot:    30
 nb_tot:    30
 nb_tot:    30
 nb_tot:    30
 nb_tot:    30
 nb_tot:    30
 nb_tot:    30
 nb_tot:    30
 nb_tot:    30
 nb_tot:    30
 nb_tot:    30
 nb_tot:    30
 nb_tot:    30
 nb_tot:    30
 nb_tot:    30
 nb_tot:    30
 nb_tot:    30
 nb_tot:    30
 nb_tot:    30
 nb_tot:    30
 nb_tot:    30
 nb_tot:    30
 nb_tot:    30
 nb_tot:    30
 nb_tot:    30
 nb_tot:    30
 nb_tot:    30
 nb_tot:    30
 nb_tot:    30
 nb_tot:    30
 nb_tot:    30
 nb_tot:    30
 nb_tot:    30
 nb_tot:    30
 nb_tot:    30
 nb_tot:    30
 nb_tot:    30
 nb_tot:    30
 nb_tot:    30
 nb_tot:    30
 nb_tot:    30
 nb_tot:    30
 nb_tot:    30
 nb_tot:    30
 nb_tot:    30
 nb_tot:    30
 nb_tot:    30
 nb_tot:    30
 nb_tot:    30
 nb_tot:    30
 nb_tot:    30
 nb_tot:    30
 nb_tot:    30
 nb_tot:    30
 nb_tot:    30
 nb_tot:    30
 nb_tot:    30
 nb_tot:    30
 nb_tot:    30
 nb_tot:    30
 nb_tot:    30
 nb_tot:    30
 nb_tot:    30
 nb_tot:    30
 nb_tot:    30
 nb_tot:    30
 nb_tot:    30
 nb_tot:    30
 nb_tot:    30
 nb_tot:    30
 nb_tot:    30
 nb_tot:    30
 nb_tot:    30
 nb_tot:    30
 nb_tot:    30
 nb_tot:    30
 nb_tot:    30
 nb_tot:    30
 nb_tot:    30
 nb_tot:    30
 nb_tot:    30
 nb_tot:    30
 nb_tot:    30
 nb_tot:    30
 nb_tot:    30
 nb_tot:    30
 nb_tot:    30
 nb_tot:    30
 nb_tot:    30
 nb_tot:    30
 nb_tot:    30
 nb_tot:    30
 nb_tot:    30
 nb_tot:    30
 nb_tot:    30
 nb_tot:    30
 nb_tot:    30
 nb_tot:    30
 nb_tot:    30
 nb_tot:    30
 nb_tot:    30
 nb_tot:    30
 nb_tot:    30
 nb_tot:    30
 nb_tot:    30
 nb_tot:    30
 nb_tot:    30
 nb_tot:    30
 nb_tot:    30
 nb_tot:    30
 nb_tot:    30
 nb_tot:    30
 nb_tot:    30
 nb_tot:    30
 nb_tot:    30
 nb_tot:    30
 nb_tot:    30
 nb_tot:    30
 nb_tot:    30
 nb_tot:    30
 nb_tot:    30
 nb_tot:    30
 nb_tot:    30
 nb_tot:    30
 nb_tot:    30
 nb_tot:    30
 nb_tot:    30
 nb_tot:    30
 nb_tot:    30
 nb_tot:    30
 nb_tot:    30
 nb_tot:    30
 nb_tot:    30
 nb_tot:    30
 nb_tot:    30
 nb_tot:    30
 nb_tot:    30
 nb_tot:    30
 nb_tot:    30
 nb_tot:    30
 nb_tot:    30
 nb_tot:    30
 nb_tot:    30
 nb_tot:    30
 nb_tot:    30
 nb_tot:    30
 nb_tot:    30
 nb_tot:    30
 nb_tot:    30
 nb_tot:    30
 nb_tot:    30
 nb_tot:    30
 nb_tot:    30
 nb_tot:    30
 nb_tot:    30
 nb_tot:    30
 nb_tot:    30
 nb_tot:    30
 nb_tot:    30
 nb_tot:    30
 nb_tot:    30
 nb_tot:    30
 nb_tot:    30
 nb_tot:    30
 nb_tot:    30
 nb_tot:    30
 nb_tot:    30
 nb_tot:    30
 nb_tot:    30
 nb_tot:    30
 nb_tot:    30
 nb_tot:    30
 nb_tot:    30
 nb_tot:    30
 nb_tot:    30
 nb_tot:    30
 nb_tot:    30
 nb_tot:    30
 nb_tot:    30
 nb_tot:    30
 nb_tot:    30
 nb_tot:    30
 nb_tot:    30
 nb_tot:    30
 nb_tot:    30
 nb_tot:    30
 nb_tot:    30
 nb_tot:    30
 nb_tot:    30
 nb_tot:    30
 nb_tot:    30
 nb_tot:    30
 nb_tot:    30
 nb_tot:    30
 nb_tot:    30
 nb_tot:    30
 nb_tot:    30
 nb_tot:    30
 nb_tot:    30
 nb_tot:    30
 nb_tot:    30
 nb_tot:    30
 nb_tot:    30
 nb_tot:    30
 nb_tot:    30
 nb_tot:    30
 nb_tot:    30
 nb_tot:    30
 nb_tot:    30
 nb_tot:    30
 nb_tot:    30
 nb_tot:    30
 nb_tot:    30
 nb_tot:    30
 nb_tot:    30
 nb_tot:    30
 nb_tot:    30
 nb_tot:    30
 nb_tot:    30
 nb_tot:    30
 nb_tot:    30
 nb_tot:    30
 nb_tot:    30
 nb_tot:    30
 nb_tot:    30
 nb_tot:    30
 nb_tot:    30
 nb_tot:    30
 nb_tot:    30
 nb_tot:    30
 nb_tot:    30
 nb_tot:    30
 nb_tot:    30
 nb_tot:    30
 nb_tot:    30
 nb_tot:    30
 nb_tot:    30
 nb_tot:    30
 nb_tot:    30
 nb_tot:    30
 nb_tot:    30
 nb_tot:    30
 nb_tot:    30
 nb_tot:    30
 nb_tot:    30
 nb_tot:    30
 nb_tot:    30
 nb_tot:    30
 nb_tot:    30
 nb_tot:    30
 nb_tot:    30
Your VASP job completed at  Mon Dec 18 17:22:10 CST 2017 

------------------------------------------------------------
Sender: LSF System <lsfadmin@alps1-60>
Subject: Job 548528: <optics> in cluster <cluster5> Done

Job <optics> was submitted from host <alps6> by user <s11gyg07> in cluster <cluster5>.
Job was executed on host(s) <12*alps1-60>, in queue <12cpu>, as user <s11gyg07> in cluster <cluster5>.
</home/s11gyg07> was used as the home directory.
</work/s11gyg07/Hands-on-1218/3-AuAl2/2-optics/10k> was used as the working directory.
Started at Mon Dec 18 17:20:39 2017
Results reported on Mon Dec 18 17:22:10 2017

Your job looked like:

------------------------------------------------------------
# LSBATCH: User input
/bin/csh
#BSUB -J optics
#BSUB -e optics.err
#BSUB -o optics.stderr
#BSUB -R 'span[ptile=12]'
#BSUB -q 12cpu
#BSUB -n 12

cat $LSB_DJOB_HOSTFILE > /work/s11gyg07/Hands-on-1218/3-AuAl2/2-optics/10k/hostlist.565

module load compiler/intel/2015
module load mpi/intel/2015/mvapich2/2.1

echo "Your VASP job starts at  `date` "



/pkg/mpi/intel/2015/mvapich2/2.1/bin/mpirun -np 12  /home/s11gyg00/bin/vasp_optics


wait


echo "Your VASP job completed at  `date` "



------------------------------------------------------------

Successfully completed.

Resource usage summary:

    CPU time :                                   818.93 sec.
    Total Requested Memory :                     40.00 GB
    Delta Memory :                               -
    Max Processes :                              17
    Max Threads :                                18

The output (if any) is above this job summary.



PS:

Read file <optics.err> for stderr output of this job.

