       N       E                     dE             d eps       ncg     rms          rms(c)
DAV:   1     0.511663801451E+02    0.51166E+02   -0.37609E+03  7174   0.250E+02
DAV:   2    -0.139195578466E+02   -0.65086E+02   -0.55240E+02  7932   0.955E+01
DAV:   3    -0.156066286360E+02   -0.16871E+01   -0.16774E+01  8010   0.151E+01
DAV:   4    -0.156138174952E+02   -0.71889E-02   -0.71882E-02  7572   0.111E+00
DAV:   5    -0.156138863706E+02   -0.68875E-04   -0.68875E-04  8220   0.107E-01    0.735E+00
DAV:   6    -0.144006368623E+02    0.12132E+01   -0.20442E+00  8260   0.142E+01    0.149E+00
DAV:   7    -0.143003880239E+02    0.10025E+00   -0.19011E-01  7588   0.322E+00    0.102E+00
DAV:   8    -0.142570044035E+02    0.43384E-01   -0.17641E-02  7576   0.439E-01    0.119E-01
DAV:   9    -0.142564917782E+02    0.51263E-03   -0.90516E-04  7680   0.251E-01    0.527E-02
DAV:  10    -0.142565091181E+02   -0.17340E-04   -0.12637E-04  7466   0.619E-02
   1 F= -.14256509E+02 E0= -.14246469E+02  d E =-.200800E-01
 imaginary and real dielectric function
