 vasp.5.3.5 31Mar14 (build Apr 24 2016 17:13:53) complex                        
  
 executed on             LinuxIFC date 2017.12.18  17:20:42
 running on   12 total cores
 distrk:  each k-point on   12 cores,    1 groups
 distr:  one band on NCORES_PER_BAND=  12 cores,    1 groups


--------------------------------------------------------------------------------------------------------


 INCAR:
 POTCAR:   PAW Au 04Feb1998                       
 POTCAR:   PAW Al 17Apr2000                       

 ----------------------------------------------------------------------------- 
|                                                                             |
|           W    W    AA    RRRRR   N    N  II  N    N   GGGG   !!!           |
|           W    W   A  A   R    R  NN   N  II  NN   N  G    G  !!!           |
|           W    W  A    A  R    R  N N  N  II  N N  N  G       !!!           |
|           W WW W  AAAAAA  RRRRR   N  N N  II  N  N N  G  GGG   !            |
|           WW  WW  A    A  R   R   N   NN  II  N   NN  G    G                |
|           W    W  A    A  R    R  N    N  II  N    N   GGGG   !!!           |
|                                                                             |
|      For optimal performance we recommend to set                            |
|        NCORE= 4 - approx SQRT( number of cores)                             |
|      NCORE specifies how many cores store one orbital (NPAR=cpu/NCORE).     |
|      This setting can  greatly improve the performance of VASP for DFT.     |
|      The default, NPAR=number of cores might be grossly inefficient         |
|      on modern multi-core architectures or massively parallel machines.     |
|      Do your own testing !!!!                                               |
|      Unfortunately you need to use the default for GW and RPA calculations. |
|      (for HF NCORE is supported but not extensively tested yet)             |
|                                                                             |
 ----------------------------------------------------------------------------- 

 POTCAR:   PAW Au 04Feb1998                       
   VRHFIN =Au: s1d10                                                            
   LEXCH  = CA                                                                  
   EATOM  =   929.4667 eV,   68.3139 Ry                                         
                                                                                
   TITEL  = PAW Au 04Feb1998                                                    
   LULTRA =        F    use ultrasoft PP ?                                      
   IUNSCR =        1    unscreen: 0-lin 1-nonlin 2-no                           
   RPACOR =    2.330    partial core radius                                     
   POMASS =  196.966; ZVAL   =   11.000    mass and valenz                      
   RCORE  =    2.500    outmost cutoff radius                                   
   RWIGS  =    2.840; RWIGS  =    1.503    wigner-seitz radius (au A)           
   ENMAX  =  229.869; ENMIN  =  172.402 eV                                      
   RCLOC  =    1.964    cutoff for local pot                                    
   LCOR   =        T    correct aug charges                                     
   LPAW   =        T    paw PP                                                  
   EAUG   =  356.670                                                            
   DEXC   =    -.020                                                            
   RMAX   =    3.041    core radius for proj-oper                               
   RDEP   =    2.598    core radius for depl-charge                             
   QCUT   =   -4.110; QGAM   =    8.221    optimization parameters              
                                                                                
   Description                                                                  
     l     E      TYP  RCUT    TYP  RCUT                                        
     2   .000     23  2.500                                                     
     2   .000     23  2.500                                                     
     0   .000     23  2.500                                                     
     0   .000     23  2.500                                                     
     1  -.200     23  2.500                                                     
     1   .000     23  2.500                                                     
     3   .000      7   .000                                                     
  local pseudopotential read in
  partial core-charges read in
  atomic valenz-charges read in
  non local Contribution for L=           2  read in
    real space projection operators read in
  non local Contribution for L=           2  read in
    real space projection operators read in
  non local Contribution for L=           0  read in
    real space projection operators read in
  non local Contribution for L=           0  read in
    real space projection operators read in
  non local Contribution for L=           1  read in
    real space projection operators read in
  non local Contribution for L=           1  read in
    real space projection operators read in
    PAW grid and wavefunctions read in
 
   number of l-projection  operators is LMAX  =           6
   number of lm-projection operators is LMMAX =          18
 
 POTCAR:   PAW Al 17Apr2000                       
   VRHFIN =Al: s2p1                                                             
   LEXCH  = CA                                                                  
   EATOM  =    53.7936 eV,    3.9537 Ry                                         
                                                                                
   TITEL  = PAW Al 17Apr2000                                                    
   LULTRA =        F    use ultrasoft PP ?                                      
   IUNSCR =        1    unscreen: 0-lin 1-nonlin 2-no                           
   RPACOR =    1.500    partial core radius                                     
   POMASS =   26.982; ZVAL   =    3.000    mass and valenz                      
   RCORE  =    1.900    outmost cutoff radius                                   
   RWIGS  =    2.650; RWIGS  =    1.402    wigner-seitz radius (au A)           
   ENMAX  =  240.957; ENMIN  =  180.718 eV                                      
   ICORE  =        2    local potential                                         
   LCOR   =        T    correct aug charges                                     
   LPAW   =        T    paw PP                                                  
   EAUG   =  291.052                                                            
   DEXC   =    -.032                                                            
   RMAX   =    2.970    core radius for proj-oper                               
   RAUG   =    1.300    factor for augmentation sphere                          
   RDEP   =    1.966    core radius for depl-charge                             
   QCUT   =   -4.208; QGAM   =    8.417    optimization parameters              
                                                                                
   Description                                                                  
     l     E      TYP  RCUT    TYP  RCUT                                        
     0   .000     23  1.900                                                     
     0   .000     23  1.900                                                     
     1   .000     23  1.900                                                     
     1  1.000     23  1.900                                                     
     2   .000      7  1.900                                                     
  local pseudopotential read in
  partial core-charges read in
  atomic valenz-charges read in
  non local Contribution for L=           0  read in
    real space projection operators read in
  non local Contribution for L=           0  read in
    real space projection operators read in
  non local Contribution for L=           1  read in
    real space projection operators read in
  non local Contribution for L=           1  read in
    real space projection operators read in
    PAW grid and wavefunctions read in
 
   number of l-projection  operators is LMAX  =           4
   number of lm-projection operators is LMMAX =           8
 
 PAW Au 04Feb1998                       :
 energy of atom  1       EATOM= -929.4667
 kinetic energy error for atom=    0.0617 (will be added to EATOM!!)
 PAW Al 17Apr2000                       :
 energy of atom  2       EATOM=  -53.7936
 kinetic energy error for atom=    0.0031 (will be added to EATOM!!)
 
 
 POSCAR: AuAl2                                   
  positions in direct lattice
  velocities in cartesian coordinates
 exchange correlation table for  LEXCH =        2
   RHO(1)=    0.500       N(1)  =     2000
   RHO(2)=  100.500       N(2)  =     4000
 


--------------------------------------------------------------------------------------------------------


 ion  position               nearest neighbor table
   1  0.000  0.000  0.000-   2 2.58   3 2.58   3 2.58   3 2.58   3 2.58   2 2.58   2 2.58   2 2.58

   2  0.250  0.250  0.250-   1 2.58   1 2.58   1 2.58   1 2.58   3 2.98   3 2.98   3 2.98   3 2.98
                             3 2.98   3 2.98
   3  0.750  0.750  0.750-   1 2.58   1 2.58   1 2.58   1 2.58   2 2.98   2 2.98   2 2.98   2 2.98
                             2 2.98   2 2.98
 
  LATTYP: Found a face centered cubic cell.
 ALAT       =     5.9605803960
  
  Lattice vectors:
  
 A1 = (   0.0000000000,   2.9802901980,   2.9802901980)
 A2 = (   2.9802901980,   0.0000000000,   2.9802901980)
 A3 = (   2.9802901980,   2.9802901980,   0.0000000000)


Analysis of symmetry for initial positions (statically):
=====================================================================
 Subroutine PRICEL returns:
 Original cell was already a primitive cell.
 

 Routine SETGRP: Setting up the symmetry group for a 
 face centered cubic supercell.


 Subroutine GETGRP returns: Found 48 space group operations
 (whereof 48 operations were pure point group operations)
 out of a pool of 48 trial point group operations.


The static configuration has the point symmetry O_h .


Analysis of symmetry for dynamics (positions and initial velocities):
=====================================================================
 Subroutine PRICEL returns:
 Original cell was already a primitive cell.
 

 Routine SETGRP: Setting up the symmetry group for a 
 face centered cubic supercell.


 Subroutine GETGRP returns: Found 48 space group operations
 (whereof 48 operations were pure point group operations)
 out of a pool of 48 trial point group operations.


The dynamic configuration has the point symmetry O_h .
 
 
 KPOINTS: 10x10x10                                

Automatic generation of k-mesh.
Space group operators:
 irot       det(A)        alpha          n_x          n_y          n_z        tau_x        tau_y        tau_z
    1     1.000000     0.000000     1.000000     0.000000     0.000000     0.000000     0.000000     0.000000
    2    -1.000000     0.000000     1.000000     0.000000     0.000000     0.000000     0.000000     0.000000
    3     1.000000   120.000000    -0.577350    -0.577350    -0.577350     0.000000     0.000000     0.000000
    4    -1.000000   120.000000    -0.577350    -0.577350    -0.577350     0.000000     0.000000     0.000000
    5     1.000000   120.000000     0.577350     0.577350     0.577350     0.000000     0.000000     0.000000
    6    -1.000000   120.000000     0.577350     0.577350     0.577350     0.000000     0.000000     0.000000
    7     1.000000    90.000000     0.000000     0.000000    -1.000000     0.000000     0.000000     0.000000
    8    -1.000000    90.000000     0.000000     0.000000    -1.000000     0.000000     0.000000     0.000000
    9     1.000000   180.000000     0.000000     0.707107     0.707107     0.000000     0.000000     0.000000
   10    -1.000000   180.000000     0.000000     0.707107     0.707107     0.000000     0.000000     0.000000
   11     1.000000    90.000000     0.000000     1.000000     0.000000     0.000000     0.000000     0.000000
   12    -1.000000    90.000000     0.000000     1.000000     0.000000     0.000000     0.000000     0.000000
   13     1.000000   180.000000     0.000000     0.000000     1.000000     0.000000     0.000000     0.000000
   14    -1.000000   180.000000     0.000000     0.000000     1.000000     0.000000     0.000000     0.000000
   15     1.000000   120.000000    -0.577350     0.577350     0.577350     0.000000     0.000000     0.000000
   16    -1.000000   120.000000    -0.577350     0.577350     0.577350     0.000000     0.000000     0.000000
   17     1.000000   120.000000    -0.577350     0.577350    -0.577350     0.000000     0.000000     0.000000
   18    -1.000000   120.000000    -0.577350     0.577350    -0.577350     0.000000     0.000000     0.000000
   19     1.000000    90.000000     0.000000     0.000000     1.000000     0.000000     0.000000     0.000000
   20    -1.000000    90.000000     0.000000     0.000000     1.000000     0.000000     0.000000     0.000000
   21     1.000000    90.000000    -1.000000     0.000000     0.000000     0.000000     0.000000     0.000000
   22    -1.000000    90.000000    -1.000000     0.000000     0.000000     0.000000     0.000000     0.000000
   23     1.000000   180.000000     0.707107     0.000000     0.707107     0.000000     0.000000     0.000000
   24    -1.000000   180.000000     0.707107     0.000000     0.707107     0.000000     0.000000     0.000000
   25     1.000000   120.000000     0.577350    -0.577350     0.577350     0.000000     0.000000     0.000000
   26    -1.000000   120.000000     0.577350    -0.577350     0.577350     0.000000     0.000000     0.000000
   27     1.000000   120.000000    -0.577350    -0.577350     0.577350     0.000000     0.000000     0.000000
   28    -1.000000   120.000000    -0.577350    -0.577350     0.577350     0.000000     0.000000     0.000000
   29     1.000000   180.000000     1.000000     0.000000     0.000000     0.000000     0.000000     0.000000
   30    -1.000000   180.000000     1.000000     0.000000     0.000000     0.000000     0.000000     0.000000
   31     1.000000    90.000000     0.000000    -1.000000     0.000000     0.000000     0.000000     0.000000
   32    -1.000000    90.000000     0.000000    -1.000000     0.000000     0.000000     0.000000     0.000000
   33     1.000000   180.000000     0.707107     0.707107     0.000000     0.000000     0.000000     0.000000
   34    -1.000000   180.000000     0.707107     0.707107     0.000000     0.000000     0.000000     0.000000
   35     1.000000    90.000000     1.000000     0.000000     0.000000     0.000000     0.000000     0.000000
   36    -1.000000    90.000000     1.000000     0.000000     0.000000     0.000000     0.000000     0.000000
   37     1.000000   120.000000     0.577350    -0.577350    -0.577350     0.000000     0.000000     0.000000
   38    -1.000000   120.000000     0.577350    -0.577350    -0.577350     0.000000     0.000000     0.000000
   39     1.000000   180.000000     0.000000     1.000000     0.000000     0.000000     0.000000     0.000000
   40    -1.000000   180.000000     0.000000     1.000000     0.000000     0.000000     0.000000     0.000000
   41     1.000000   120.000000     0.577350     0.577350    -0.577350     0.000000     0.000000     0.000000
   42    -1.000000   120.000000     0.577350     0.577350    -0.577350     0.000000     0.000000     0.000000
   43     1.000000   180.000000     0.000000    -0.707107     0.707107     0.000000     0.000000     0.000000
   44    -1.000000   180.000000     0.000000    -0.707107     0.707107     0.000000     0.000000     0.000000
   45     1.000000   180.000000     0.707107    -0.707107     0.000000     0.000000     0.000000     0.000000
   46    -1.000000   180.000000     0.707107    -0.707107     0.000000     0.000000     0.000000     0.000000
   47     1.000000   180.000000     0.707107     0.000000    -0.707107     0.000000     0.000000     0.000000
   48    -1.000000   180.000000     0.707107     0.000000    -0.707107     0.000000     0.000000     0.000000
 
 Subroutine IBZKPT returns following result:
 ===========================================
 
 Found    110 irreducible k-points:
 
 Following reciprocal coordinates:
            Coordinates               Weight
  0.050000  0.050000  0.050000     96.000000
  0.150000  0.050000  0.050000    288.000000
  0.250000  0.050000  0.050000    288.000000
  0.350000  0.050000  0.050000    288.000000
  0.450000  0.050000  0.050000    288.000000
 -0.450000  0.050000  0.050000    288.000000
 -0.350000  0.050000  0.050000    288.000000
 -0.250000  0.050000  0.050000    288.000000
 -0.150000  0.050000  0.050000    288.000000
 -0.050000  0.050000  0.050000    288.000000
  0.150000  0.150000  0.050000    288.000000
  0.250000  0.150000  0.050000    576.000000
  0.350000  0.150000  0.050000    576.000000
  0.450000  0.150000  0.050000    576.000000
 -0.450000  0.150000  0.050000    576.000000
 -0.350000  0.150000  0.050000    576.000000
 -0.250000  0.150000  0.050000    576.000000
 -0.150000  0.150000  0.050000    576.000000
 -0.050000  0.150000  0.050000    576.000000
  0.250000  0.250000  0.050000    288.000000
  0.350000  0.250000  0.050000    576.000000
  0.450000  0.250000  0.050000    576.000000
 -0.450000  0.250000  0.050000    576.000000
 -0.350000  0.250000  0.050000    576.000000
 -0.250000  0.250000  0.050000    576.000000
 -0.150000  0.250000  0.050000    576.000000
 -0.050000  0.250000  0.050000    576.000000
  0.350000  0.350000  0.050000    288.000000
  0.450000  0.350000  0.050000    576.000000
 -0.450000  0.350000  0.050000    576.000000
 -0.350000  0.350000  0.050000    576.000000
 -0.250000  0.350000  0.050000    576.000000
 -0.150000  0.350000  0.050000    576.000000
 -0.050000  0.350000  0.050000    576.000000
  0.450000  0.450000  0.050000    288.000000
 -0.450000  0.450000  0.050000    576.000000
 -0.350000  0.450000  0.050000    576.000000
 -0.250000  0.450000  0.050000    576.000000
 -0.150000  0.450000  0.050000    576.000000
 -0.050000  0.450000  0.050000    576.000000
 -0.450000 -0.450000  0.050000    288.000000
 -0.350000 -0.450000  0.050000    576.000000
 -0.250000 -0.450000  0.050000    576.000000
 -0.150000 -0.450000  0.050000    576.000000
 -0.350000 -0.350000  0.050000    288.000000
 -0.250000 -0.350000  0.050000    576.000000
 -0.150000 -0.350000  0.050000    576.000000
 -0.250000 -0.250000  0.050000    288.000000
 -0.150000 -0.250000  0.050000    576.000000
 -0.150000 -0.150000  0.050000    288.000000
  0.150000  0.150000  0.150000     96.000000
  0.250000  0.150000  0.150000    288.000000
  0.350000  0.150000  0.150000    288.000000
  0.450000  0.150000  0.150000    288.000000
 -0.450000  0.150000  0.150000    288.000000
 -0.350000  0.150000  0.150000    288.000000
 -0.250000  0.150000  0.150000    288.000000
 -0.150000  0.150000  0.150000    288.000000
  0.250000  0.250000  0.150000    288.000000
  0.350000  0.250000  0.150000    576.000000
  0.450000  0.250000  0.150000    576.000000
 -0.450000  0.250000  0.150000    576.000000
 -0.350000  0.250000  0.150000    576.000000
 -0.250000  0.250000  0.150000    576.000000
 -0.150000  0.250000  0.150000    576.000000
  0.350000  0.350000  0.150000    288.000000
  0.450000  0.350000  0.150000    576.000000
 -0.450000  0.350000  0.150000    576.000000
 -0.350000  0.350000  0.150000    576.000000
 -0.250000  0.350000  0.150000    576.000000
 -0.150000  0.350000  0.150000    576.000000
  0.450000  0.450000  0.150000    288.000000
 -0.450000  0.450000  0.150000    576.000000
 -0.350000  0.450000  0.150000    576.000000
 -0.250000  0.450000  0.150000    576.000000
 -0.150000  0.450000  0.150000    576.000000
 -0.450000 -0.450000  0.150000    288.000000
 -0.350000 -0.450000  0.150000    576.000000
 -0.250000 -0.450000  0.150000    576.000000
 -0.350000 -0.350000  0.150000    288.000000
 -0.250000 -0.350000  0.150000    576.000000
 -0.250000 -0.250000  0.150000    288.000000
  0.250000  0.250000  0.250000     96.000000
  0.350000  0.250000  0.250000    288.000000
  0.450000  0.250000  0.250000    288.000000
 -0.450000  0.250000  0.250000    288.000000
 -0.350000  0.250000  0.250000    288.000000
 -0.250000  0.250000  0.250000    288.000000
  0.350000  0.350000  0.250000    288.000000
  0.450000  0.350000  0.250000    576.000000
 -0.450000  0.350000  0.250000    576.000000
 -0.350000  0.350000  0.250000    576.000000
 -0.250000  0.350000  0.250000    576.000000
  0.450000  0.450000  0.250000    288.000000
 -0.450000  0.450000  0.250000    576.000000
 -0.350000  0.450000  0.250000    576.000000
 -0.250000  0.450000  0.250000    576.000000
 -0.450000 -0.450000  0.250000    288.000000
 -0.350000 -0.450000  0.250000    576.000000
 -0.350000 -0.350000  0.250000    288.000000
  0.350000  0.350000  0.350000     96.000000
  0.450000  0.350000  0.350000    288.000000
 -0.450000  0.350000  0.350000    288.000000
 -0.350000  0.350000  0.350000    288.000000
  0.450000  0.450000  0.350000    288.000000
 -0.450000  0.450000  0.350000    576.000000
 -0.350000  0.450000  0.350000    576.000000
 -0.450000 -0.450000  0.350000    288.000000
  0.450000  0.450000  0.450000     96.000000
 -0.450000  0.450000  0.450000    288.000000
 
 Following cartesian coordinates:
            Coordinates               Weight
  0.054525  0.054525  0.054525     96.000000
 -0.054525  0.163575  0.163575    288.000000
 -0.163575  0.272624  0.272624    288.000000
 -0.272624  0.381674  0.381674    288.000000
 -0.381674  0.490724  0.490724    288.000000
  0.599774 -0.490724 -0.490724    288.000000
  0.490724 -0.381674 -0.381674    288.000000
  0.381674 -0.272624 -0.272624    288.000000
  0.272624 -0.163575 -0.163575    288.000000
  0.163575 -0.054525 -0.054525    288.000000
  0.054525  0.054525  0.272624    288.000000
 -0.054525  0.163575  0.381674    576.000000
 -0.163575  0.272624  0.490724    576.000000
 -0.272624  0.381674  0.599774    576.000000
  0.708824 -0.599774 -0.381674    576.000000
  0.599774 -0.490724 -0.272624    576.000000
  0.490724 -0.381674 -0.163575    576.000000
  0.381674 -0.272624 -0.054525    576.000000
  0.272624 -0.163575  0.054525    576.000000
  0.054525  0.054525  0.490724    288.000000
 -0.054525  0.163575  0.599774    576.000000
 -0.163575  0.272624  0.708824    576.000000
  0.817873 -0.708824 -0.272624    576.000000
  0.708824 -0.599774 -0.163575    576.000000
  0.599774 -0.490724 -0.054525    576.000000
  0.490724 -0.381674  0.054525    576.000000
  0.381674 -0.272624  0.163575    576.000000
  0.054525  0.054525  0.708824    288.000000
 -0.054525  0.163575  0.817873    576.000000
  0.926923 -0.817873 -0.163575    576.000000
  0.817873 -0.708824 -0.054525    576.000000
  0.708824 -0.599774  0.054525    576.000000
  0.599774 -0.490724  0.163575    576.000000
  0.490724 -0.381674  0.272624    576.000000
  0.054525  0.054525  0.926923    288.000000
  1.035973 -0.926923 -0.054525    576.000000
  0.926923 -0.817873  0.054525    576.000000
  0.817873 -0.708824  0.163575    576.000000
  0.708824 -0.599774  0.272624    576.000000
  0.599774 -0.490724  0.381674    576.000000
  0.054525  0.054525 -1.035973    288.000000
 -0.054525  0.163575 -0.926923    576.000000
 -0.163575  0.272624 -0.817873    576.000000
 -0.272624  0.381674 -0.708824    576.000000
  0.054525  0.054525 -0.817873    288.000000
 -0.054525  0.163575 -0.708824    576.000000
 -0.163575  0.272624 -0.599774    576.000000
  0.054525  0.054525 -0.599774    288.000000
 -0.054525  0.163575 -0.490724    576.000000
  0.054525  0.054525 -0.381674    288.000000
  0.163575  0.163575  0.163575     96.000000
  0.054525  0.272624  0.272624    288.000000
 -0.054525  0.381674  0.381674    288.000000
 -0.163575  0.490724  0.490724    288.000000
  0.817873 -0.490724 -0.490724    288.000000
  0.708824 -0.381674 -0.381674    288.000000
  0.599774 -0.272624 -0.272624    288.000000
  0.490724 -0.163575 -0.163575    288.000000
  0.163575  0.163575  0.381674    288.000000
  0.054525  0.272624  0.490724    576.000000
 -0.054525  0.381674  0.599774    576.000000
  0.926923 -0.599774 -0.381674    576.000000
  0.817873 -0.490724 -0.272624    576.000000
  0.708824 -0.381674 -0.163575    576.000000
  0.599774 -0.272624 -0.054525    576.000000
  0.163575  0.163575  0.599774    288.000000
  0.054525  0.272624  0.708824    576.000000
  1.035973 -0.708824 -0.272624    576.000000
  0.926923 -0.599774 -0.163575    576.000000
  0.817873 -0.490724 -0.054525    576.000000
  0.708824 -0.381674  0.054525    576.000000
  0.163575  0.163575  0.817873    288.000000
  1.145023 -0.817873 -0.163575    576.000000
  1.035973 -0.708824 -0.054525    576.000000
  0.926923 -0.599774  0.054525    576.000000
  0.817873 -0.490724  0.163575    576.000000
  0.163575  0.163575 -1.145023    288.000000
  0.054525  0.272624 -1.035973    576.000000
 -0.054525  0.381674 -0.926923    576.000000
  0.163575  0.163575 -0.926923    288.000000
  0.054525  0.272624 -0.817873    576.000000
  0.163575  0.163575 -0.708824    288.000000
  0.272624  0.272624  0.272624     96.000000
  0.163575  0.381674  0.381674    288.000000
  0.054525  0.490724  0.490724    288.000000
  1.035973 -0.490724 -0.490724    288.000000
  0.926923 -0.381674 -0.381674    288.000000
  0.817873 -0.272624 -0.272624    288.000000
  0.272624  0.272624  0.490724    288.000000
  0.163575  0.381674  0.599774    576.000000
  1.145023 -0.599774 -0.381674    576.000000
  1.035973 -0.490724 -0.272624    576.000000
  0.926923 -0.381674 -0.163575    576.000000
  0.272624  0.272624  0.708824    288.000000
  1.254073 -0.708824 -0.272624    576.000000
  1.145023 -0.599774 -0.163575    576.000000
  1.035973 -0.490724 -0.054525    576.000000
  0.272624  0.272624 -1.254073    288.000000
  0.163575  0.381674 -1.145023    576.000000
  0.272624  0.272624 -1.035973    288.000000
  0.381674  0.381674  0.381674     96.000000
  0.272624  0.490724  0.490724    288.000000
  1.254073 -0.490724 -0.490724    288.000000
  1.145023 -0.381674 -0.381674    288.000000
  0.381674  0.381674  0.599774    288.000000
  1.363122 -0.599774 -0.381674    576.000000
  1.254073 -0.490724 -0.272624    576.000000
  0.381674  0.381674 -1.363122    288.000000
  0.490724  0.490724  0.490724     96.000000
  1.472172 -0.490724 -0.490724    288.000000
 


--------------------------------------------------------------------------------------------------------




 Dimension of arrays:
   k-points           NKPTS =    110   k-points in BZ     NKDIM =    110   number of bands    NBANDS=     30
   number of dos      NEDOS =    301   number of ions     NIONS =      3
   non local maximal  LDIM  =      6   non local SUM 2l+1 LMDIM =     18
   total plane-waves  NPLWV =   4096
   max r-space proj   IRMAX =      1   max aug-charges    IRDMAX=   4930
   dimension x,y,z NGX =    16 NGY =   16 NGZ =   16
   dimension x,y,z NGXF=    32 NGYF=   32 NGZF=   32
   support grid    NGXF=    32 NGYF=   32 NGZF=   32
   ions per type =               1   2
 NGX,Y,Z   is equivalent  to a cutoff of   6.31,  6.31,  6.31 a.u.
 NGXF,Y,Z  is equivalent  to a cutoff of  12.62, 12.62, 12.62 a.u.


 I would recommend the setting:
   dimension x,y,z NGX =    16 NGY =   16 NGZ =   16
 SYSTEM =  AuAl2                                   
 POSCAR =  AuAl2                                   

 Startparameter for this run:
   NWRITE =      2    write-flag & timer
   PREC   = normal    normal or accurate (medium, high low for compatibility)
   ISTART =      0    job   : 0-new  1-cont  2-samecut
   ICHARG =      2    charge: 1-file 2-atom 10-const
   ISPIN  =      1    spin polarized calculation?
   LNONCOLLINEAR =      F non collinear calculations
   LSORBIT =      F    spin-orbit coupling
   INIWAV =      1    electr: 0-lowe 1-rand  2-diag
   LASPH  =      F    aspherical Exc in radial PAW
   METAGGA=      F    non-selfconsistent MetaGGA calc.

 Electronic Relaxation 1
   ENCUT  =  241.0 eV  17.71 Ry    4.21 a.u.   5.33  5.33  5.33*2*pi/ulx,y,z
   ENINI  =  241.0     initial cutoff
   ENAUG  =  356.7 eV  augmentation charge cutoff
   NELM   =     60;   NELMIN=  2; NELMDL= -5     # of ELM steps 
   EDIFF  = 0.1E-03   stopping-criterion for ELM
   LREAL  =      F    real-space projection
   NLSPLINE    = F    spline interpolate recip. space projectors
   LCOMPAT=      F    compatible to vasp.4.4
   GGA_COMPAT  = T    GGA compatible to vasp.4.4-vasp.4.6
   LMAXPAW     = -100 max onsite density
   LMAXMIX     =    2 max onsite mixed and CHGCAR
   VOSKOWN=      0    Vosko Wilk Nusair interpolation
   ROPT   =    0.00000   0.00000
 Ionic relaxation
   EDIFFG = 0.1E-02   stopping-criterion for IOM
   NSW    =      0    number of steps for IOM
   NBLOCK =      1;   KBLOCK =      1    inner block; outer block 
   IBRION =     -1    ionic relax: 0-MD 1-quasi-New 2-CG
   NFREE  =      0    steps in history (QN), initial steepest desc. (CG)
   ISIF   =      2    stress and relaxation
   IWAVPR =     10    prediction:  0-non 1-charg 2-wave 3-comb
   ISYM   =      2    0-nonsym 1-usesym 2-fastsym
   LCORR  =      T    Harris-Foulkes like correction to forces

   POTIM  = 0.5000    time-step for ionic-motion
   TEIN   =    0.0    initial temperature
   TEBEG  =    0.0;   TEEND  =   0.0 temperature during run
   SMASS  =  -3.00    Nose mass-parameter (am)
   estimated Nose-frequenzy (Omega)   =  0.10E-29 period in steps =****** mass=  -0.406E-27a.u.
   SCALEE = 1.0000    scale energy and forces
   NPACO  =    256;   APACO  = 16.0  distance and # of slots for P.C.
   PSTRESS=    0.0 pullay stress

  Mass of Ions in am
   POMASS = 196.97 26.98
  Ionic Valenz
   ZVAL   =  11.00  3.00
  Atomic Wigner-Seitz radii
   RWIGS  =   1.50  1.40
  virtual crystal weights 
   VCA    =   1.00  1.00
   NELECT =      17.0000    total number of electrons
   NUPDOWN=      -1.0000    fix difference up-down

 DOS related values:
   EMIN   =  10.00;   EMAX   =-10.00  energy-range for DOS
   EFERMI =   0.00
   ISMEAR =     0;   SIGMA  =   0.20  broadening in eV -4-tet -1-fermi 0-gaus

 Electronic relaxation 2 (details)
   IALGO  =     38    algorithm
   LDIAG  =      T    sub-space diagonalisation (order eigenvalues)
   LSUBROT=      F    optimize rotation matrix (better conditioning)
   TURBO    =      0    0=normal 1=particle mesh
   IRESTART =      0    0=no restart 2=restart with 2 vectors
   NREBOOT  =      0    no. of reboots
   NMIN     =      0    reboot dimension
   EREF     =   0.00    reference energy to select bands
   IMIX   =      4    mixing-type and parameters
     AMIX     =   0.40;   BMIX     =  1.00
     AMIX_MAG =   1.60;   BMIX_MAG =  1.00
     AMIN     =   0.10
     WC   =   100.;   INIMIX=   1;  MIXPRE=   1;  MAXMIX= -45

 Intra band minimization:
   WEIMIN = 0.0000     energy-eigenvalue tresh-hold
   EBREAK =  0.83E-06  absolut break condition
   DEPER  =   0.30     relativ break condition  

   TIME   =   0.40     timestep for ELM

  volume/ion in A,a.u.               =      17.65       119.09
  Fermi-wavevector in a.u.,A,eV,Ry     =   1.121044  2.118466 17.098975  1.256739
  Thomas-Fermi vector in A             =   2.257695
 
 Write flags
   LWAVE  =      T    write WAVECAR
   LCHARG =      T    write CHGCAR
   LVTOT  =      F    write LOCPOT, total local potential
   LVHAR  =      F    write LOCPOT, Hartree potential only
   LELF   =      F    write electronic localiz. function (ELF)
   LORBIT =      0    0 simple, 1 ext, 2 COOP (PROOUT)


 Dipole corrections
   LMONO  =      F    monopole corrections only (constant potential shift)
   LDIPOL =      F    correct potential (dipole corrections)
   IDIPOL =      0    1-x, 2-y, 3-z, 4-all directions 
   EPSILON=  1.0000000 bulk dielectric constant

 Exchange correlation treatment:
   GGA     =    --    GGA type
   LEXCH   =     2    internal setting for exchange type
   VOSKOWN=      0    Vosko Wilk Nusair interpolation
   LHFCALC =     F    Hartree Fock is set to
   LHFONE  =     F    Hartree Fock one center treatment
   AEXX    =    0.0000 exact exchange contribution

 Linear response parameters
   LEPSILON=     F    determine dielectric tensor
   LRPA    =     F    only Hartree local field effects (RPA)
   LNABLA  =     F    use nabla operator in PAW spheres
   LVEL    =     F    velocity operator in full k-point grid
   LINTERFAST=   F  fast interpolation
   KINTER  =     0    interpolate to denser k-point grid
   CSHIFT  =0.1000    complex shift for real part using Kramers Kronig
   OMEGAMAX=  -1.0    maximum frequency
   DEG_THRESHOLD= 0.2000000E-02 threshold for treating states as degnerate
   RTIME   =    0.100 relaxation time in fs

 Orbital magnetization related:
   ORBITALMAG=     F  switch on orbital magnetization
   LCHIMAG   =     F  perturbation theory with respect to B field
   DQ        =  0.001000  dq finite difference perturbation B field



--------------------------------------------------------------------------------------------------------


 Static calculation
 charge density and potential will be updated during run
 non-spin polarized calculation
 Variant of blocked Davidson
 Davidson routine will perform the subspace rotation
 perform sub-space diagonalisation
    after iterative eigenvector-optimisation
 modified Broyden-mixing scheme, WC =      100.0
 initial mixing is a Kerker type mixing with AMIX =  0.4000 and BMIX =      1.0000
 Hartree-type preconditioning will be used
 using additional bands           21
 reciprocal scheme for non local part
 use partial core corrections
 calculate Harris-corrections to forces 
   (improved forces if not selfconsistent)
 use of overlap-Matrix (Vanderbilt PP)
 Gauss-broadening in eV      SIGMA  =   0.20


--------------------------------------------------------------------------------------------------------


  energy-cutoff  :      240.96
  volume of cell :       52.94
      direct lattice vectors                 reciprocal lattice vectors
     0.000000000  2.980290198  2.980290198    -0.167768897  0.167768897  0.167768897
     2.980290198  0.000000000  2.980290198     0.167768897 -0.167768897  0.167768897
     2.980290198  2.980290198  0.000000000     0.167768897  0.167768897 -0.167768897

  length of vectors
     4.214766818  4.214766818  4.214766818     0.290584254  0.290584254  0.290584254


 
 k-points in units of 2pi/SCALE and weight: 10x10x10                                
   0.05452489  0.05452489  0.05452489       0.002
  -0.05452489  0.16357467  0.16357467       0.006
  -0.16357467  0.27262446  0.27262446       0.006
  -0.27262446  0.38167424  0.38167424       0.006
  -0.38167424  0.49072402  0.49072402       0.006
   0.59977381 -0.49072402 -0.49072402       0.006
   0.49072402 -0.38167424 -0.38167424       0.006
   0.38167424 -0.27262446 -0.27262446       0.006
   0.27262446 -0.16357467 -0.16357467       0.006
   0.16357467 -0.05452489 -0.05452489       0.006
   0.05452489  0.05452489  0.27262446       0.006
  -0.05452489  0.16357467  0.38167424       0.012
  -0.16357467  0.27262446  0.49072402       0.012
  -0.27262446  0.38167424  0.59977381       0.012
   0.70882359 -0.59977381 -0.38167424       0.012
   0.59977381 -0.49072402 -0.27262446       0.012
   0.49072402 -0.38167424 -0.16357467       0.012
   0.38167424 -0.27262446 -0.05452489       0.012
   0.27262446 -0.16357467  0.05452489       0.012
   0.05452489  0.05452489  0.49072402       0.006
  -0.05452489  0.16357467  0.59977381       0.012
  -0.16357467  0.27262446  0.70882359       0.012
   0.81787337 -0.70882359 -0.27262446       0.012
   0.70882359 -0.59977381 -0.16357467       0.012
   0.59977381 -0.49072402 -0.05452489       0.012
   0.49072402 -0.38167424  0.05452489       0.012
   0.38167424 -0.27262446  0.16357467       0.012
   0.05452489  0.05452489  0.70882359       0.006
  -0.05452489  0.16357467  0.81787337       0.012
   0.92692316 -0.81787337 -0.16357467       0.012
   0.81787337 -0.70882359 -0.05452489       0.012
   0.70882359 -0.59977381  0.05452489       0.012
   0.59977381 -0.49072402  0.16357467       0.012
   0.49072402 -0.38167424  0.27262446       0.012
   0.05452489  0.05452489  0.92692316       0.006
   1.03597294 -0.92692316 -0.05452489       0.012
   0.92692316 -0.81787337  0.05452489       0.012
   0.81787337 -0.70882359  0.16357467       0.012
   0.70882359 -0.59977381  0.27262446       0.012
   0.59977381 -0.49072402  0.38167424       0.012
   0.05452489  0.05452489 -1.03597294       0.006
  -0.05452489  0.16357467 -0.92692316       0.012
  -0.16357467  0.27262446 -0.81787337       0.012
  -0.27262446  0.38167424 -0.70882359       0.012
   0.05452489  0.05452489 -0.81787337       0.006
  -0.05452489  0.16357467 -0.70882359       0.012
  -0.16357467  0.27262446 -0.59977381       0.012
   0.05452489  0.05452489 -0.59977381       0.006
  -0.05452489  0.16357467 -0.49072402       0.012
   0.05452489  0.05452489 -0.38167424       0.006
   0.16357467  0.16357467  0.16357467       0.002
   0.05452489  0.27262446  0.27262446       0.006
  -0.05452489  0.38167424  0.38167424       0.006
  -0.16357467  0.49072402  0.49072402       0.006
   0.81787337 -0.49072402 -0.49072402       0.006
   0.70882359 -0.38167424 -0.38167424       0.006
   0.59977381 -0.27262446 -0.27262446       0.006
   0.49072402 -0.16357467 -0.16357467       0.006
   0.16357467  0.16357467  0.38167424       0.006
   0.05452489  0.27262446  0.49072402       0.012
  -0.05452489  0.38167424  0.59977381       0.012
   0.92692316 -0.59977381 -0.38167424       0.012
   0.81787337 -0.49072402 -0.27262446       0.012
   0.70882359 -0.38167424 -0.16357467       0.012
   0.59977381 -0.27262446 -0.05452489       0.012
   0.16357467  0.16357467  0.59977381       0.006
   0.05452489  0.27262446  0.70882359       0.012
   1.03597294 -0.70882359 -0.27262446       0.012
   0.92692316 -0.59977381 -0.16357467       0.012
   0.81787337 -0.49072402 -0.05452489       0.012
   0.70882359 -0.38167424  0.05452489       0.012
   0.16357467  0.16357467  0.81787337       0.006
   1.14502272 -0.81787337 -0.16357467       0.012
   1.03597294 -0.70882359 -0.05452489       0.012
   0.92692316 -0.59977381  0.05452489       0.012
   0.81787337 -0.49072402  0.16357467       0.012
   0.16357467  0.16357467 -1.14502272       0.006
   0.05452489  0.27262446 -1.03597294       0.012
  -0.05452489  0.38167424 -0.92692316       0.012
   0.16357467  0.16357467 -0.92692316       0.006
   0.05452489  0.27262446 -0.81787337       0.012
   0.16357467  0.16357467 -0.70882359       0.006
   0.27262446  0.27262446  0.27262446       0.002
   0.16357467  0.38167424  0.38167424       0.006
   0.05452489  0.49072402  0.49072402       0.006
   1.03597294 -0.49072402 -0.49072402       0.006
   0.92692316 -0.38167424 -0.38167424       0.006
   0.81787337 -0.27262446 -0.27262446       0.006
   0.27262446  0.27262446  0.49072402       0.006
   0.16357467  0.38167424  0.59977381       0.012
   1.14502272 -0.59977381 -0.38167424       0.012
   1.03597294 -0.49072402 -0.27262446       0.012
   0.92692316 -0.38167424 -0.16357467       0.012
   0.27262446  0.27262446  0.70882359       0.006
   1.25407251 -0.70882359 -0.27262446       0.012
   1.14502272 -0.59977381 -0.16357467       0.012
   1.03597294 -0.49072402 -0.05452489       0.012
   0.27262446  0.27262446 -1.25407251       0.006
   0.16357467  0.38167424 -1.14502272       0.012
   0.27262446  0.27262446 -1.03597294       0.006
   0.38167424  0.38167424  0.38167424       0.002
   0.27262446  0.49072402  0.49072402       0.006
   1.25407251 -0.49072402 -0.49072402       0.006
   1.14502272 -0.38167424 -0.38167424       0.006
   0.38167424  0.38167424  0.59977381       0.006
   1.36312229 -0.59977381 -0.38167424       0.012
   1.25407251 -0.49072402 -0.27262446       0.012
   0.38167424  0.38167424 -1.36312229       0.006
   0.49072402  0.49072402  0.49072402       0.002
   1.47217207 -0.49072402 -0.49072402       0.006
 
 k-points in reciprocal lattice and weights: 10x10x10                                
   0.05000000  0.05000000  0.05000000       0.002
   0.15000000  0.05000000  0.05000000       0.006
   0.25000000  0.05000000  0.05000000       0.006
   0.35000000  0.05000000  0.05000000       0.006
   0.45000000  0.05000000  0.05000000       0.006
  -0.45000000  0.05000000  0.05000000       0.006
  -0.35000000  0.05000000  0.05000000       0.006
  -0.25000000  0.05000000  0.05000000       0.006
  -0.15000000  0.05000000  0.05000000       0.006
  -0.05000000  0.05000000  0.05000000       0.006
   0.15000000  0.15000000  0.05000000       0.006
   0.25000000  0.15000000  0.05000000       0.012
   0.35000000  0.15000000  0.05000000       0.012
   0.45000000  0.15000000  0.05000000       0.012
  -0.45000000  0.15000000  0.05000000       0.012
  -0.35000000  0.15000000  0.05000000       0.012
  -0.25000000  0.15000000  0.05000000       0.012
  -0.15000000  0.15000000  0.05000000       0.012
  -0.05000000  0.15000000  0.05000000       0.012
   0.25000000  0.25000000  0.05000000       0.006
   0.35000000  0.25000000  0.05000000       0.012
   0.45000000  0.25000000  0.05000000       0.012
  -0.45000000  0.25000000  0.05000000       0.012
  -0.35000000  0.25000000  0.05000000       0.012
  -0.25000000  0.25000000  0.05000000       0.012
  -0.15000000  0.25000000  0.05000000       0.012
  -0.05000000  0.25000000  0.05000000       0.012
   0.35000000  0.35000000  0.05000000       0.006
   0.45000000  0.35000000  0.05000000       0.012
  -0.45000000  0.35000000  0.05000000       0.012
  -0.35000000  0.35000000  0.05000000       0.012
  -0.25000000  0.35000000  0.05000000       0.012
  -0.15000000  0.35000000  0.05000000       0.012
  -0.05000000  0.35000000  0.05000000       0.012
   0.45000000  0.45000000  0.05000000       0.006
  -0.45000000  0.45000000  0.05000000       0.012
  -0.35000000  0.45000000  0.05000000       0.012
  -0.25000000  0.45000000  0.05000000       0.012
  -0.15000000  0.45000000  0.05000000       0.012
  -0.05000000  0.45000000  0.05000000       0.012
  -0.45000000 -0.45000000  0.05000000       0.006
  -0.35000000 -0.45000000  0.05000000       0.012
  -0.25000000 -0.45000000  0.05000000       0.012
  -0.15000000 -0.45000000  0.05000000       0.012
  -0.35000000 -0.35000000  0.05000000       0.006
  -0.25000000 -0.35000000  0.05000000       0.012
  -0.15000000 -0.35000000  0.05000000       0.012
  -0.25000000 -0.25000000  0.05000000       0.006
  -0.15000000 -0.25000000  0.05000000       0.012
  -0.15000000 -0.15000000  0.05000000       0.006
   0.15000000  0.15000000  0.15000000       0.002
   0.25000000  0.15000000  0.15000000       0.006
   0.35000000  0.15000000  0.15000000       0.006
   0.45000000  0.15000000  0.15000000       0.006
  -0.45000000  0.15000000  0.15000000       0.006
  -0.35000000  0.15000000  0.15000000       0.006
  -0.25000000  0.15000000  0.15000000       0.006
  -0.15000000  0.15000000  0.15000000       0.006
   0.25000000  0.25000000  0.15000000       0.006
   0.35000000  0.25000000  0.15000000       0.012
   0.45000000  0.25000000  0.15000000       0.012
  -0.45000000  0.25000000  0.15000000       0.012
  -0.35000000  0.25000000  0.15000000       0.012
  -0.25000000  0.25000000  0.15000000       0.012
  -0.15000000  0.25000000  0.15000000       0.012
   0.35000000  0.35000000  0.15000000       0.006
   0.45000000  0.35000000  0.15000000       0.012
  -0.45000000  0.35000000  0.15000000       0.012
  -0.35000000  0.35000000  0.15000000       0.012
  -0.25000000  0.35000000  0.15000000       0.012
  -0.15000000  0.35000000  0.15000000       0.012
   0.45000000  0.45000000  0.15000000       0.006
  -0.45000000  0.45000000  0.15000000       0.012
  -0.35000000  0.45000000  0.15000000       0.012
  -0.25000000  0.45000000  0.15000000       0.012
  -0.15000000  0.45000000  0.15000000       0.012
  -0.45000000 -0.45000000  0.15000000       0.006
  -0.35000000 -0.45000000  0.15000000       0.012
  -0.25000000 -0.45000000  0.15000000       0.012
  -0.35000000 -0.35000000  0.15000000       0.006
  -0.25000000 -0.35000000  0.15000000       0.012
  -0.25000000 -0.25000000  0.15000000       0.006
   0.25000000  0.25000000  0.25000000       0.002
   0.35000000  0.25000000  0.25000000       0.006
   0.45000000  0.25000000  0.25000000       0.006
  -0.45000000  0.25000000  0.25000000       0.006
  -0.35000000  0.25000000  0.25000000       0.006
  -0.25000000  0.25000000  0.25000000       0.006
   0.35000000  0.35000000  0.25000000       0.006
   0.45000000  0.35000000  0.25000000       0.012
  -0.45000000  0.35000000  0.25000000       0.012
  -0.35000000  0.35000000  0.25000000       0.012
  -0.25000000  0.35000000  0.25000000       0.012
   0.45000000  0.45000000  0.25000000       0.006
  -0.45000000  0.45000000  0.25000000       0.012
  -0.35000000  0.45000000  0.25000000       0.012
  -0.25000000  0.45000000  0.25000000       0.012
  -0.45000000 -0.45000000  0.25000000       0.006
  -0.35000000 -0.45000000  0.25000000       0.012
  -0.35000000 -0.35000000  0.25000000       0.006
   0.35000000  0.35000000  0.35000000       0.002
   0.45000000  0.35000000  0.35000000       0.006
  -0.45000000  0.35000000  0.35000000       0.006
  -0.35000000  0.35000000  0.35000000       0.006
   0.45000000  0.45000000  0.35000000       0.006
  -0.45000000  0.45000000  0.35000000       0.012
  -0.35000000  0.45000000  0.35000000       0.012
  -0.45000000 -0.45000000  0.35000000       0.006
   0.45000000  0.45000000  0.45000000       0.002
  -0.45000000  0.45000000  0.45000000       0.006
 
 position of ions in fractional coordinates (direct lattice) 
   0.00000000  0.00000000  0.00000000
   0.25000000  0.25000000  0.25000000
   0.75000000  0.75000000  0.75000000
 
 position of ions in cartesian coordinates  (Angst):
   0.00000000  0.00000000  0.00000000
   1.49014510  1.49014510  1.49014510
   4.47043530  4.47043530  4.47043530
 


--------------------------------------------------------------------------------------------------------


 k-point  1 :   0.0500 0.0500 0.0500  plane waves:     453
 k-point  2 :   0.1500 0.0500 0.0500  plane waves:     453
 k-point  3 :   0.2500 0.0500 0.0500  plane waves:     459
 k-point  4 :   0.3500 0.0500 0.0500  plane waves:     451
 k-point  5 :   0.4500 0.0500 0.0500  plane waves:     449
 k-point  6 :  -0.4500 0.0500 0.0500  plane waves:     449
 k-point  7 :  -0.3500 0.0500 0.0500  plane waves:     449
 k-point  8 :  -0.2500 0.0500 0.0500  plane waves:     453
 k-point  9 :  -0.1500 0.0500 0.0500  plane waves:     462
 k-point 10 :  -0.0500 0.0500 0.0500  plane waves:     451
 k-point 11 :   0.1500 0.1500 0.0500  plane waves:     456
 k-point 12 :   0.2500 0.1500 0.0500  plane waves:     459
 k-point 13 :   0.3500 0.1500 0.0500  plane waves:     452
 k-point 14 :   0.4500 0.1500 0.0500  plane waves:     446
 k-point 15 :  -0.4500 0.1500 0.0500  plane waves:     450
 k-point 16 :  -0.3500 0.1500 0.0500  plane waves:     446
 k-point 17 :  -0.2500 0.1500 0.0500  plane waves:     449
 k-point 18 :  -0.1500 0.1500 0.0500  plane waves:     458
 k-point 19 :  -0.0500 0.1500 0.0500  plane waves:     460
 k-point 20 :   0.2500 0.2500 0.0500  plane waves:     450
 k-point 21 :   0.3500 0.2500 0.0500  plane waves:     450
 k-point 22 :   0.4500 0.2500 0.0500  plane waves:     449
 k-point 23 :  -0.4500 0.2500 0.0500  plane waves:     449
 k-point 24 :  -0.3500 0.2500 0.0500  plane waves:     447
 k-point 25 :  -0.2500 0.2500 0.0500  plane waves:     447
 k-point 26 :  -0.1500 0.2500 0.0500  plane waves:     449
 k-point 27 :  -0.0500 0.2500 0.0500  plane waves:     458
 k-point 28 :   0.3500 0.3500 0.0500  plane waves:     444
 k-point 29 :   0.4500 0.3500 0.0500  plane waves:     450
 k-point 30 :  -0.4500 0.3500 0.0500  plane waves:     448
 k-point 31 :  -0.3500 0.3500 0.0500  plane waves:     450
 k-point 32 :  -0.2500 0.3500 0.0500  plane waves:     446
 k-point 33 :  -0.1500 0.3500 0.0500  plane waves:     445
 k-point 34 :  -0.0500 0.3500 0.0500  plane waves:     450
 k-point 35 :   0.4500 0.4500 0.0500  plane waves:     452
 k-point 36 :  -0.4500 0.4500 0.0500  plane waves:     454
 k-point 37 :  -0.3500 0.4500 0.0500  plane waves:     446
 k-point 38 :  -0.2500 0.4500 0.0500  plane waves:     452
 k-point 39 :  -0.1500 0.4500 0.0500  plane waves:     449
 k-point 40 :  -0.0500 0.4500 0.0500  plane waves:     450
 k-point 41 :  -0.4500-0.4500 0.0500  plane waves:     452
 k-point 42 :  -0.3500-0.4500 0.0500  plane waves:     453
 k-point 43 :  -0.2500-0.4500 0.0500  plane waves:     449
 k-point 44 :  -0.1500-0.4500 0.0500  plane waves:     446
 k-point 45 :  -0.3500-0.3500 0.0500  plane waves:     449
 k-point 46 :  -0.2500-0.3500 0.0500  plane waves:     448
 k-point 47 :  -0.1500-0.3500 0.0500  plane waves:     449
 k-point 48 :  -0.2500-0.2500 0.0500  plane waves:     449
 k-point 49 :  -0.1500-0.2500 0.0500  plane waves:     453
 k-point 50 :  -0.1500-0.1500 0.0500  plane waves:     458
 k-point 51 :   0.1500 0.1500 0.1500  plane waves:     456
 k-point 52 :   0.2500 0.1500 0.1500  plane waves:     455
 k-point 53 :   0.3500 0.1500 0.1500  plane waves:     453
 k-point 54 :   0.4500 0.1500 0.1500  plane waves:     449
 k-point 55 :  -0.4500 0.1500 0.1500  plane waves:     446
 k-point 56 :  -0.3500 0.1500 0.1500  plane waves:     449
 k-point 57 :  -0.2500 0.1500 0.1500  plane waves:     449
 k-point 58 :  -0.1500 0.1500 0.1500  plane waves:     446
 k-point 59 :   0.2500 0.2500 0.1500  plane waves:     458
 k-point 60 :   0.3500 0.2500 0.1500  plane waves:     452
 k-point 61 :   0.4500 0.2500 0.1500  plane waves:     449
 k-point 62 :  -0.4500 0.2500 0.1500  plane waves:     447
 k-point 63 :  -0.3500 0.2500 0.1500  plane waves:     446
 k-point 64 :  -0.2500 0.2500 0.1500  plane waves:     445
 k-point 65 :  -0.1500 0.2500 0.1500  plane waves:     452
 k-point 66 :   0.3500 0.3500 0.1500  plane waves:     447
 k-point 67 :   0.4500 0.3500 0.1500  plane waves:     449
 k-point 68 :  -0.4500 0.3500 0.1500  plane waves:     449
 k-point 69 :  -0.3500 0.3500 0.1500  plane waves:     449
 k-point 70 :  -0.2500 0.3500 0.1500  plane waves:     447
 k-point 71 :  -0.1500 0.3500 0.1500  plane waves:     448
 k-point 72 :   0.4500 0.4500 0.1500  plane waves:     451
 k-point 73 :  -0.4500 0.4500 0.1500  plane waves:     450
 k-point 74 :  -0.3500 0.4500 0.1500  plane waves:     448
 k-point 75 :  -0.2500 0.4500 0.1500  plane waves:     448
 k-point 76 :  -0.1500 0.4500 0.1500  plane waves:     448
 k-point 77 :  -0.4500-0.4500 0.1500  plane waves:     455
 k-point 78 :  -0.3500-0.4500 0.1500  plane waves:     449
 k-point 79 :  -0.2500-0.4500 0.1500  plane waves:     450
 k-point 80 :  -0.3500-0.3500 0.1500  plane waves:     452
 k-point 81 :  -0.2500-0.3500 0.1500  plane waves:     450
 k-point 82 :  -0.2500-0.2500 0.1500  plane waves:     450
 k-point 83 :   0.2500 0.2500 0.2500  plane waves:     459
 k-point 84 :   0.3500 0.2500 0.2500  plane waves:     455
 k-point 85 :   0.4500 0.2500 0.2500  plane waves:     449
 k-point 86 :  -0.4500 0.2500 0.2500  plane waves:     447
 k-point 87 :  -0.3500 0.2500 0.2500  plane waves:     450
 k-point 88 :  -0.2500 0.2500 0.2500  plane waves:     447
 k-point 89 :   0.3500 0.3500 0.2500  plane waves:     450
 k-point 90 :   0.4500 0.3500 0.2500  plane waves:     446
 k-point 91 :  -0.4500 0.3500 0.2500  plane waves:     445
 k-point 92 :  -0.3500 0.3500 0.2500  plane waves:     448
 k-point 93 :  -0.2500 0.3500 0.2500  plane waves:     446
 k-point 94 :   0.4500 0.4500 0.2500  plane waves:     447
 k-point 95 :  -0.4500 0.4500 0.2500  plane waves:     447
 k-point 96 :  -0.3500 0.4500 0.2500  plane waves:     449
 k-point 97 :  -0.2500 0.4500 0.2500  plane waves:     451
 k-point 98 :  -0.4500-0.4500 0.2500  plane waves:     448
 k-point 99 :  -0.3500-0.4500 0.2500  plane waves:     449
 k-point ** :  -0.3500-0.3500 0.2500  plane waves:     445
 k-point ** :   0.3500 0.3500 0.3500  plane waves:     450
 k-point ** :   0.4500 0.3500 0.3500  plane waves:     444
 k-point ** :  -0.4500 0.3500 0.3500  plane waves:     446
 k-point ** :  -0.3500 0.3500 0.3500  plane waves:     449
 k-point ** :   0.4500 0.4500 0.3500  plane waves:     447
 k-point ** :  -0.4500 0.4500 0.3500  plane waves:     448
 k-point ** :  -0.3500 0.4500 0.3500  plane waves:     447
 k-point ** :  -0.4500-0.4500 0.3500  plane waves:     448
 k-point ** :   0.4500 0.4500 0.4500  plane waves:     461
 k-point ** :  -0.4500 0.4500 0.4500  plane waves:     449

 maximum and minimum number of plane-waves per node :        48       29

 maximum number of plane-waves:       462
 maximum index in each direction: 
   IXMAX=    5   IYMAX=    5   IZMAX=    5
   IXMIN=   -5   IYMIN=   -5   IZMIN=   -5

 WARNING: aliasing errors must be expected set NGX to  22 to avoid them
 WARNING: aliasing errors must be expected set NGY to  22 to avoid them
 WARNING: aliasing errors must be expected set NGZ to  22 to avoid them
 aliasing errors are usually negligible using standard VASP settings
 and one can safely disregard these warnings

 parallel 3D FFT for wavefunctions:
    minimum data exchange during FFTs selected (reduces bandwidth)
 parallel 3D FFT for charge:
    minimum data exchange during FFTs selected (reduces bandwidth)


 total amount of memory used by VASP on root node    35211. kBytes
========================================================================

   base      :      30000. kBytes
   nonl-proj :       1396. kBytes
   fftplans  :        216. kBytes
   grid      :        311. kBytes
   one-center:         15. kBytes
   wavefun   :       3273. kBytes
 
     INWAV:  cpu time    0.00: real time    0.00
 Broyden mixing: mesh for mixing (old mesh)
   NGX = 11   NGY = 11   NGZ = 11
  (NGX  = 32   NGY  = 32   NGZ  = 32)
  gives a total of   1331 points

 initial charge density was supplied:
 charge density of overlapping atoms calculated
 number of electron      17.0000000 magnetization 
 keeping initial charge density in first step


--------------------------------------------------------------------------------------------------------


 Maximum index for augmentation-charges          463 (set IRDMAX)


--------------------------------------------------------------------------------------------------------


 First call to EWALD:  gamma=   0.472
 Maximum number of real-space cells 3x 3x 3
 Maximum number of reciprocal cells 3x 3x 3

 FEWALD executed in parallel
    FEWALD:  cpu time    0.00: real time    0.00


----------------------------------------- Iteration    1(   1)  ---------------------------------------


    POTLOK:  cpu time    0.00: real time    0.00
    SETDIJ:  cpu time    0.01: real time    0.01
     EDDAV:  cpu time    3.97: real time    4.00
       DOS:  cpu time    0.03: real time    0.03
    --------------------------------------------
      LOOP:  cpu time    4.01: real time    4.05

 eigenvalue-minimisations  :  7174
 total energy-change (2. order) : 0.5116638E+02  (-0.3760915E+03)
 number of electron      17.0000000 magnetization 
 augmentation part       17.0000000 magnetization 

 Free energy of the ion-electron system (eV)
  ---------------------------------------------------
  alpha Z        PSCENC =        52.91977773
  Ewald energy   TEWEN  =      -921.35963664
  -Hartree energ DENC   =      -267.47146778
  -exchange      EXHF   =         0.00000000
  -V(xc)+E(xc)   XCENC  =       -34.19145116
  PAW double counting   =       816.04175667     -733.29636931
  entropy T*S    EENTRO =        -0.02642808
  eigenvalues    EBANDS =       101.56425406
  atomic energy  EATOM  =      1036.98594466
  ---------------------------------------------------
  free energy    TOTEN  =        51.16638015 eV

  energy without entropy =       51.19280823  energy(sigma->0) =       51.17959419


--------------------------------------------------------------------------------------------------------




----------------------------------------- Iteration    1(   2)  ---------------------------------------


     EDDAV:  cpu time    4.30: real time    4.35
       DOS:  cpu time    0.03: real time    0.03
    --------------------------------------------
      LOOP:  cpu time    4.34: real time    4.39

 eigenvalue-minimisations  :  7932
 total energy-change (2. order) :-0.6508594E+02  (-0.5524046E+02)
 number of electron      17.0000000 magnetization 
 augmentation part       17.0000000 magnetization 

 Free energy of the ion-electron system (eV)
  ---------------------------------------------------
  alpha Z        PSCENC =        52.91977773
  Ewald energy   TEWEN  =      -921.35963664
  -Hartree energ DENC   =      -267.47146778
  -exchange      EXHF   =         0.00000000
  -V(xc)+E(xc)   XCENC  =       -34.19145116
  PAW double counting   =       816.04175667     -733.29636931
  entropy T*S    EENTRO =        -0.02058040
  eigenvalues    EBANDS =        36.47246839
  atomic energy  EATOM  =      1036.98594466
  ---------------------------------------------------
  free energy    TOTEN  =       -13.91955785 eV

  energy without entropy =      -13.89897745  energy(sigma->0) =      -13.90926765


--------------------------------------------------------------------------------------------------------




----------------------------------------- Iteration    1(   3)  ---------------------------------------


     EDDAV:  cpu time    4.35: real time    4.45
       DOS:  cpu time    0.03: real time    0.03
    --------------------------------------------
      LOOP:  cpu time    4.38: real time    4.49

 eigenvalue-minimisations  :  8010
 total energy-change (2. order) :-0.1687071E+01  (-0.1677363E+01)
 number of electron      17.0000000 magnetization 
 augmentation part       17.0000000 magnetization 

 Free energy of the ion-electron system (eV)
  ---------------------------------------------------
  alpha Z        PSCENC =        52.91977773
  Ewald energy   TEWEN  =      -921.35963664
  -Hartree energ DENC   =      -267.47146778
  -exchange      EXHF   =         0.00000000
  -V(xc)+E(xc)   XCENC  =       -34.19145116
  PAW double counting   =       816.04175667     -733.29636931
  entropy T*S    EENTRO =        -0.02103442
  eigenvalues    EBANDS =        34.78585162
  atomic energy  EATOM  =      1036.98594466
  ---------------------------------------------------
  free energy    TOTEN  =       -15.60662864 eV

  energy without entropy =      -15.58559421  energy(sigma->0) =      -15.59611142


--------------------------------------------------------------------------------------------------------




----------------------------------------- Iteration    1(   4)  ---------------------------------------


     EDDAV:  cpu time    4.02: real time    4.06
       DOS:  cpu time    0.03: real time    0.03
    --------------------------------------------
      LOOP:  cpu time    4.06: real time    4.11

 eigenvalue-minimisations  :  7572
 total energy-change (2. order) :-0.7188859E-02  (-0.7188237E-02)
 number of electron      17.0000000 magnetization 
 augmentation part       17.0000000 magnetization 

 Free energy of the ion-electron system (eV)
  ---------------------------------------------------
  alpha Z        PSCENC =        52.91977773
  Ewald energy   TEWEN  =      -921.35963664
  -Hartree energ DENC   =      -267.47146778
  -exchange      EXHF   =         0.00000000
  -V(xc)+E(xc)   XCENC  =       -34.19145116
  PAW double counting   =       816.04175667     -733.29636931
  entropy T*S    EENTRO =        -0.02103758
  eigenvalues    EBANDS =        34.77866592
  atomic energy  EATOM  =      1036.98594466
  ---------------------------------------------------
  free energy    TOTEN  =       -15.61381750 eV

  energy without entropy =      -15.59277992  energy(sigma->0) =      -15.60329871


--------------------------------------------------------------------------------------------------------




----------------------------------------- Iteration    1(   5)  ---------------------------------------


     EDDAV:  cpu time    4.33: real time    4.37
       DOS:  cpu time    0.03: real time    0.03
    CHARGE:  cpu time    0.11: real time    0.12
    MIXING:  cpu time    0.00: real time    0.00
    --------------------------------------------
      LOOP:  cpu time    4.48: real time    4.52

 eigenvalue-minimisations  :  8220
 total energy-change (2. order) :-0.6887541E-04  (-0.6887506E-04)
 number of electron      17.0000060 magnetization 
 augmentation part        3.2534021 magnetization 

 Broyden mixing:
  rms(total) = 0.73469E+00    rms(broyden)= 0.73442E+00
  rms(prec ) = 0.21894E+01
  weight for this iteration     100.00

 Free energy of the ion-electron system (eV)
  ---------------------------------------------------
  alpha Z        PSCENC =        52.91977773
  Ewald energy   TEWEN  =      -921.35963664
  -Hartree energ DENC   =      -267.47146778
  -exchange      EXHF   =         0.00000000
  -V(xc)+E(xc)   XCENC  =       -34.19145116
  PAW double counting   =       816.04175667     -733.29636931
  entropy T*S    EENTRO =        -0.02103760
  eigenvalues    EBANDS =        34.77859707
  atomic energy  EATOM  =      1036.98594466
  ---------------------------------------------------
  free energy    TOTEN  =       -15.61388637 eV

  energy without entropy =      -15.59284877  energy(sigma->0) =      -15.60336757


--------------------------------------------------------------------------------------------------------




----------------------------------------- Iteration    1(   6)  ---------------------------------------


    POTLOK:  cpu time    0.01: real time    0.01
    SETDIJ:  cpu time    0.01: real time    0.01
     EDDAV:  cpu time    4.37: real time    4.42
       DOS:  cpu time    0.03: real time    0.03
    CHARGE:  cpu time    0.11: real time    0.11
    MIXING:  cpu time    0.00: real time    0.00
    --------------------------------------------
      LOOP:  cpu time    4.53: real time    4.59

 eigenvalue-minimisations  :  8260
 total energy-change (2. order) : 0.1213250E+01  (-0.2044154E+00)
 number of electron      17.0000069 magnetization 
 augmentation part        3.7152537 magnetization 

 Broyden mixing:
  rms(total) = 0.14891E+00    rms(broyden)= 0.14883E+00
  rms(prec ) = 0.42681E+00
  weight for this iteration     100.00

 eigenvalues of (default mixing * dielectric matrix)
  average eigenvalue GAMMA=   1.0116
  1.0116

 Free energy of the ion-electron system (eV)
  ---------------------------------------------------
  alpha Z        PSCENC =        52.91977773
  Ewald energy   TEWEN  =      -921.35963664
  -Hartree energ DENC   =      -244.60092187
  -exchange      EXHF   =         0.00000000
  -V(xc)+E(xc)   XCENC  =       -34.95253220
  PAW double counting   =       798.74207379     -718.59018665
  entropy T*S    EENTRO =        -0.01993757
  eigenvalues    EBANDS =        16.47478189
  atomic energy  EATOM  =      1036.98594466
  ---------------------------------------------------
  free energy    TOTEN  =       -14.40063686 eV

  energy without entropy =      -14.38069929  energy(sigma->0) =      -14.39066808


--------------------------------------------------------------------------------------------------------




----------------------------------------- Iteration    1(   7)  ---------------------------------------


    POTLOK:  cpu time    0.00: real time    0.00
    SETDIJ:  cpu time    0.00: real time    0.00
     EDDAV:  cpu time    4.06: real time    4.10
       DOS:  cpu time    0.03: real time    0.03
    CHARGE:  cpu time    0.11: real time    0.11
    MIXING:  cpu time    0.00: real time    0.00
    --------------------------------------------
      LOOP:  cpu time    4.22: real time    4.26

 eigenvalue-minimisations  :  7588
 total energy-change (2. order) : 0.1002488E+00  (-0.1901113E-01)
 number of electron      17.0000068 magnetization 
 augmentation part        3.6529795 magnetization 

 Broyden mixing:
  rms(total) = 0.10248E+00    rms(broyden)= 0.10248E+00
  rms(prec ) = 0.26384E+00
  weight for this iteration     100.00

 eigenvalues of (default mixing * dielectric matrix)
  average eigenvalue GAMMA=   1.6050
  0.8638  2.3462

 Free energy of the ion-electron system (eV)
  ---------------------------------------------------
  alpha Z        PSCENC =        52.91977773
  Ewald energy   TEWEN  =      -921.35963664
  -Hartree energ DENC   =      -246.90731387
  -exchange      EXHF   =         0.00000000
  -V(xc)+E(xc)   XCENC  =       -34.81743635
  PAW double counting   =       825.75487705     -747.06131025
  entropy T*S    EENTRO =        -0.02009540
  eigenvalues    EBANDS =        20.20480505
  atomic energy  EATOM  =      1036.98594466
  ---------------------------------------------------
  free energy    TOTEN  =       -14.30038802 eV

  energy without entropy =      -14.28029263  energy(sigma->0) =      -14.29034032


--------------------------------------------------------------------------------------------------------




----------------------------------------- Iteration    1(   8)  ---------------------------------------


    POTLOK:  cpu time    0.00: real time    0.00
    SETDIJ:  cpu time    0.01: real time    0.01
     EDDAV:  cpu time    4.01: real time    4.05
       DOS:  cpu time    0.03: real time    0.03
    CHARGE:  cpu time    0.11: real time    0.11
    MIXING:  cpu time    0.00: real time    0.00
    --------------------------------------------
      LOOP:  cpu time    4.17: real time    4.22

 eigenvalue-minimisations  :  7576
 total energy-change (2. order) : 0.4338362E-01  (-0.1764081E-02)
 number of electron      17.0000068 magnetization 
 augmentation part        3.6562673 magnetization 

 Broyden mixing:
  rms(total) = 0.11869E-01    rms(broyden)= 0.11868E-01
  rms(prec ) = 0.41764E-01
  weight for this iteration     100.00

 eigenvalues of (default mixing * dielectric matrix)
  average eigenvalue GAMMA=   1.3902
  2.4578  0.8565  0.8565

 Free energy of the ion-electron system (eV)
  ---------------------------------------------------
  alpha Z        PSCENC =        52.91977773
  Ewald energy   TEWEN  =      -921.35963664
  -Hartree energ DENC   =      -245.72988960
  -exchange      EXHF   =         0.00000000
  -V(xc)+E(xc)   XCENC  =       -34.75306412
  PAW double counting   =       858.67029030     -782.17009869
  entropy T*S    EENTRO =        -0.02010393
  eigenvalues    EBANDS =        21.19977589
  atomic energy  EATOM  =      1036.98594466
  ---------------------------------------------------
  free energy    TOTEN  =       -14.25700440 eV

  energy without entropy =      -14.23690048  energy(sigma->0) =      -14.24695244


--------------------------------------------------------------------------------------------------------




----------------------------------------- Iteration    1(   9)  ---------------------------------------


    POTLOK:  cpu time    0.04: real time    0.04
    SETDIJ:  cpu time    0.00: real time    0.00
     EDDAV:  cpu time    4.04: real time    4.09
       DOS:  cpu time    0.03: real time    0.03
    CHARGE:  cpu time    0.11: real time    0.11
    MIXING:  cpu time    0.00: real time    0.00
    --------------------------------------------
      LOOP:  cpu time    4.24: real time    4.30

 eigenvalue-minimisations  :  7680
 total energy-change (2. order) : 0.5126253E-03  (-0.9051635E-04)
 number of electron      17.0000068 magnetization 
 augmentation part        3.6634043 magnetization 

 Broyden mixing:
  rms(total) = 0.52658E-02    rms(broyden)= 0.52645E-02
  rms(prec ) = 0.13652E-01
  weight for this iteration     100.00

 eigenvalues of (default mixing * dielectric matrix)
  average eigenvalue GAMMA=   1.7329
  0.9361  0.9361  2.5298  2.5298

 Free energy of the ion-electron system (eV)
  ---------------------------------------------------
  alpha Z        PSCENC =        52.91977773
  Ewald energy   TEWEN  =      -921.35963664
  -Hartree energ DENC   =      -245.43025437
  -exchange      EXHF   =         0.00000000
  -V(xc)+E(xc)   XCENC  =       -34.76146496
  PAW double counting   =       857.60754987     -781.07513440
  entropy T*S    EENTRO =        -0.02008760
  eigenvalues    EBANDS =        20.87681392
  atomic energy  EATOM  =      1036.98594466
  ---------------------------------------------------
  free energy    TOTEN  =       -14.25649178 eV

  energy without entropy =      -14.23640418  energy(sigma->0) =      -14.24644798


--------------------------------------------------------------------------------------------------------




----------------------------------------- Iteration    1(  10)  ---------------------------------------


    POTLOK:  cpu time    0.00: real time    0.00
    SETDIJ:  cpu time    0.00: real time    0.00
     EDDAV:  cpu time    3.97: real time    4.01
       DOS:  cpu time    0.03: real time    0.03
    --------------------------------------------
      LOOP:  cpu time    4.02: real time    4.06

 eigenvalue-minimisations  :  7466
 total energy-change (2. order) :-0.1733990E-04  (-0.1263679E-04)
 number of electron      17.0000068 magnetization 
 augmentation part        3.6634043 magnetization 

 Free energy of the ion-electron system (eV)
  ---------------------------------------------------
  alpha Z        PSCENC =        52.91977773
  Ewald energy   TEWEN  =      -921.35963664
  -Hartree energ DENC   =      -245.40437005
  -exchange      EXHF   =         0.00000000
  -V(xc)+E(xc)   XCENC  =       -34.75746190
  PAW double counting   =       857.00580310     -780.41576520
  entropy T*S    EENTRO =        -0.02007998
  eigenvalues    EBANDS =        20.78927917
  atomic energy  EATOM  =      1036.98594466
  ---------------------------------------------------
  free energy    TOTEN  =       -14.25650912 eV

  energy without entropy =      -14.23642914  energy(sigma->0) =      -14.24646913


--------------------------------------------------------------------------------------------------------




 average (electrostatic) potential at core
  the test charge radii are     1.2098  1.0406
  (the norm of the test charge is              1.0000)
       1 -46.4946       2 -72.1167       3 -72.1167
 
 
 
 E-fermi :   6.6665     XC(G=0): -10.8027     alpha+bet :-12.5388


 k-point     1 :       0.0500    0.0500    0.0500
  band No.  band energies     occupation 
      1      -4.0356      2.00000
      2      -0.1211      2.00000
      3      -0.1016      2.00000
      4      -0.1016      2.00000
      5       0.8774      2.00000
      6       0.8774      2.00000
      7       8.7274      0.00000
      8       9.1505      0.00000
      9       9.4334      0.00000
     10       9.4334      0.00000
     11      10.8101      0.00000
     12      10.8101      0.00000
     13      11.1677      0.00000
     14      12.3405      0.00000
     15      12.3405      0.00000
     16      12.3686      0.00000
     17      13.5578      0.00000
     18      15.1911      0.00000
     19      15.1911      0.00000
     20      18.1611      0.00000
     21      26.5128      0.00000
     22      26.5128      0.00000
     23      26.6262      0.00000
     24      28.3739      0.00000
     25      28.5655      0.00000
     26      28.5655      0.00000
     27      30.7235      0.00000
     28      30.7235      0.00000
     29      31.0857      0.00000
     30      31.8462      0.00000

 k-point     2 :       0.1500    0.0500    0.0500
  band No.  band energies     occupation 
      1      -3.8587      2.00000
      2      -0.1801      2.00000
      3      -0.0599      2.00000
      4      -0.0512      2.00000
      5       0.8488      2.00000
      6       0.8887      2.00000
      7       7.3856      0.00000
      8       8.1442      0.00000
      9       9.3781      0.00000
     10       9.3786      0.00000
     11      10.8192      0.00000
     12      11.5062      0.00000
     13      11.8169      0.00000
     14      11.8438      0.00000
     15      12.3389      0.00000
     16      12.5840      0.00000
     17      14.7596      0.00000
     18      15.5012      0.00000
     19      16.2381      0.00000
     20      18.8532      0.00000
     21      24.7978      0.00000
     22      25.6296      0.00000
     23      25.7209      0.00000
     24      28.0178      0.00000
     25      28.6778      0.00000
     26      29.6806      0.00000
     27      30.1392      0.00000
     28      30.7549      0.00000
     29      30.8217      0.00000
     30      31.3098      0.00000

 k-point     3 :       0.2500    0.0500    0.0500
  band No.  band energies     occupation 
      1      -3.4316      2.00000
      2      -0.2821      2.00000
      3       0.0280      2.00000
      4       0.0336      2.00000
      5       0.8311      2.00000
      6       0.9038      2.00000
      7       5.2591      2.00000
      8       7.5366      0.00000
      9       8.5807      0.00000
     10       9.6148      0.00000
     11      10.9080      0.00000
     12      11.0120      0.00000
     13      12.0677      0.00000
     14      12.2648      0.00000
     15      12.4113      0.00000
     16      13.6125      0.00000
     17      16.5910      0.00000
     18      17.2827      0.00000
     19      17.6669      0.00000
     20      20.1917      0.00000
     21      22.8090      0.00000
     22      23.8435      0.00000
     23      23.9104      0.00000
     24      28.0142      0.00000
     25      28.8667      0.00000
     26      28.9815      0.00000
     27      29.6912      0.00000
     28      29.9002      0.00000
     29      31.0469      0.00000
     30      31.0821      0.00000

 k-point     4 :       0.3500    0.0500    0.0500
  band No.  band energies     occupation 
      1      -2.8134      2.00000
      2      -0.3383      2.00000
      3       0.1056      2.00000
      4       0.1087      2.00000
      5       0.8655      2.00000
      6       0.9489      2.00000
      7       3.3449      2.00000
      8       7.0327      0.00962
      9       7.7786      0.00000
     10       9.7892      0.00000
     11      10.5309      0.00000
     12      10.6723      0.00000
     13      11.5481      0.00000
     14      13.4635      0.00000
     15      13.5111      0.00000
     16      14.8507      0.00000
     17      17.9278      0.00000
     18      19.1700      0.00000
     19      19.9249      0.00000
     20      20.6936      0.00000
     21      21.4109      0.00000
     22      22.0574      0.00000
     23      23.1675      0.00000
     24      26.5291      0.00000
     25      27.3439      0.00000
     26      28.5092      0.00000
     27      29.5584      0.00000
     28      30.1079      0.00000
     29      30.6683      0.00000
     30      31.8531      0.00000

 k-point     5 :       0.4500    0.0500    0.0500
  band No.  band energies     occupation 
      1      -2.1965      2.00000
      2      -0.1974      2.00000
      3       0.1457      2.00000
      4       0.1483      2.00000
      5       0.9471      2.00000
      6       1.0006      2.00000
      7       1.7743      2.00000
      8       6.7437      0.58541
      9       7.1777      0.00030
     10       9.7799      0.00000
     11      10.3992      0.00000
     12      10.5704      0.00000
     13      11.1318      0.00000
     14      14.7709      0.00000
     15      14.8691      0.00000
     16      15.9972      0.00000
     17      18.1657      0.00000
     18      19.1390      0.00000
     19      19.5113      0.00000
     20      20.9960      0.00000
     21      21.6805      0.00000
     22      23.1310      0.00000
     23      24.4628      0.00000
     24      25.0066      0.00000
     25      25.2876      0.00000
     26      28.4313      0.00000
     27      29.0088      0.00000
     28      29.7690      0.00000
     29      29.9339      0.00000
     30      30.0617      0.00000

 k-point     6 :      -0.4500    0.0500    0.0500
  band No.  band energies     occupation 
      1      -1.9899      2.00000
      2      -0.0148      2.00000
      3       0.1509      2.00000
      4       0.2002      2.00000
      5       1.0029      2.00000
      6       1.0200      2.00000
      7       1.1104      2.00000
      8       6.7747      0.44418
      9       6.8997      0.09925
     10       9.6894      0.00000
     11      10.5127      0.00000
     12      10.6255      0.00000
     13      10.8920      0.00000
     14      15.2196      0.00000
     15      15.6561      0.00000
     16      16.4953      0.00000
     17      17.6153      0.00000
     18      18.6341      0.00000
     19      18.9755      0.00000
     20      21.8724      0.00000
     21      22.0681      0.00000
     22      23.5940      0.00000
     23      24.0495      0.00000
     24      24.6200      0.00000
     25      26.5744      0.00000
     26      27.0407      0.00000
     27      28.4527      0.00000
     28      29.4717      0.00000
     29      29.7395      0.00000
     30      29.8174      0.00000

 k-point     7 :      -0.3500    0.0500    0.0500
  band No.  band energies     occupation 
      1      -2.3790      2.00000
      2      -0.2794      2.00000
      3       0.1360      2.00000
      4       0.1384      2.00000
      5       0.9227      2.00000
      6       0.9854      2.00000
      7       2.2431      2.00000
      8       6.9886      0.02274
      9       7.1481      0.00066
     10       9.6602      0.00000
     11      10.5668      0.00000
     12      10.8428      0.00000
     13      10.9984      0.00000
     14      13.9183      0.00000
     15      15.1433      0.00000
     16      15.3701      0.00000
     17      18.5943      0.00000
     18      18.8886      0.00000
     19      20.0577      0.00000
     20      20.9321      0.00000
     21      21.3530      0.00000
     22      22.2255      0.00000
     23      24.3477      0.00000
     24      25.1020      0.00000
     25      25.9455      0.00000
     26      29.0097      0.00000
     27      29.2152      0.00000
     28      29.5539      0.00000
     29      30.0857      0.00000
     30      30.5533      0.00000

 k-point     8 :      -0.2500    0.0500    0.0500
  band No.  band energies     occupation 
      1      -3.0329      2.00000
      2      -0.3345      2.00000
      3       0.0865      2.00000
      4       0.0877      2.00000
      5       0.8441      2.00000
      6       0.9328      2.00000
      7       3.9509      2.00000
      8       7.3891      0.00000
      9       7.7719      0.00000
     10       9.6450      0.00000
     11      10.6259      0.00000
     12      11.2373      0.00000
     13      11.4105      0.00000
     14      12.5985      0.00000
     15      13.9471      0.00000
     16      14.0272      0.00000
     17      17.6091      0.00000
     18      18.5408      0.00000
     19      19.1446      0.00000
     20      20.8252      0.00000
     21      21.9026      0.00000
     22      22.2817      0.00000
     23      23.2308      0.00000
     24      27.2368      0.00000
     25      27.9256      0.00000
     26      28.7119      0.00000
     27      29.2541      0.00000
     28      30.0332      0.00000
     29      30.9346      0.00000
     30      31.9427      0.00000

 k-point     9 :      -0.1500    0.0500    0.0500
  band No.  band energies     occupation 
      1      -3.5993      2.00000
      2      -0.2506      2.00000
      3       0.0003      2.00000
      4       0.0041      2.00000
      5       0.8265      2.00000
      6       0.9014      2.00000
      7       5.9507      2.00000
      8       7.9957      0.00000
      9       8.4509      0.00000
     10       9.5575      0.00000
     11      10.8755      0.00000
     12      11.5488      0.00000
     13      11.7757      0.00000
     14      12.0184      0.00000
     15      12.7756      0.00000
     16      12.9053      0.00000
[...]
    2.181773    5.224358    5.224358    5.224358    0.000000   -0.000000   -0.000000
    2.618127   13.429402   13.429402   13.429402   -0.000000   -0.000000   -0.000000
    3.054482   19.576173   19.576173   19.576173    0.000000    0.000000   -0.000000
    3.490836   16.526959   16.526959   16.526959    0.000000   -0.000000   -0.000000
    3.927191   10.864466   10.864466   10.864466    0.000000    0.000000    0.000000
    4.363546    8.918596    8.918596    8.918596   -0.000000   -0.000000    0.000000
    4.799900    6.403631    6.403631    6.403631    0.000000   -0.000000   -0.000000
    5.236255    5.255485    5.255485    5.255485    0.000000    0.000000   -0.000000
    5.672609    4.203549    4.203549    4.203549   -0.000000   -0.000000   -0.000000
    6.108964    4.008178    4.008178    4.008178   -0.000000    0.000000    0.000000
    6.545318    2.949414    2.949414    2.949414   -0.000000   -0.000000   -0.000000
    6.981673    2.673126    2.673126    2.673126   -0.000000   -0.000000   -0.000000
    7.418027    1.969426    1.969426    1.969426    0.000000    0.000000    0.000000
    7.854382    1.917270    1.917270    1.917270   -0.000000   -0.000000    0.000000
    8.290737    2.033216    2.033216    2.033216   -0.000000   -0.000000   -0.000000
    8.727091    2.378869    2.378869    2.378869   -0.000000   -0.000000   -0.000000
    9.163446    2.619028    2.619028    2.619028   -0.000000    0.000000    0.000000
    9.599800    2.555828    2.555828    2.555828   -0.000000   -0.000000    0.000000
   10.036155    1.891029    1.891029    1.891029    0.000000   -0.000000    0.000000
   10.472509    1.726359    1.726359    1.726359   -0.000000   -0.000000    0.000000
   10.908864    1.717325    1.717325    1.717325   -0.000000   -0.000000    0.000000
   11.345218    1.684777    1.684777    1.684777   -0.000000   -0.000000   -0.000000
   11.781573    1.655635    1.655635    1.655635   -0.000000    0.000000   -0.000000
   12.217927    1.488293    1.488293    1.488293   -0.000000   -0.000000   -0.000000
   12.654282    1.402529    1.402529    1.402529   -0.000000   -0.000000   -0.000000
   13.090637    1.278573    1.278573    1.278573    0.000000   -0.000000    0.000000
   13.526991    1.096160    1.096160    1.096160   -0.000000   -0.000000    0.000000
   13.963346    0.960511    0.960511    0.960511   -0.000000    0.000000   -0.000000
   14.399700    0.947050    0.947050    0.947050    0.000000    0.000000   -0.000000
   14.836055    0.903040    0.903040    0.903040   -0.000000   -0.000000   -0.000000
   15.272409    0.840224    0.840224    0.840224    0.000000    0.000000   -0.000000
   15.708764    0.743219    0.743219    0.743219    0.000000    0.000000   -0.000000
   16.145118    0.672197    0.672197    0.672197    0.000000    0.000000    0.000000
   16.581473    0.636606    0.636606    0.636606    0.000000    0.000000   -0.000000
   17.017828    0.618467    0.618467    0.618467   -0.000000   -0.000000    0.000000
   17.454182    0.596575    0.596575    0.596575   -0.000000   -0.000000    0.000000
   17.890537    0.598341    0.598341    0.598341   -0.000000   -0.000000    0.000000
   18.326891    0.627545    0.627545    0.627545    0.000000   -0.000000    0.000000
   18.763246    0.581698    0.581698    0.581698    0.000000    0.000000   -0.000000
   19.199600    0.582308    0.582308    0.582308   -0.000000   -0.000000    0.000000
   19.635955    0.495144    0.495144    0.495144    0.000000    0.000000   -0.000000
   20.072309    0.484208    0.484208    0.484208   -0.000000    0.000000   -0.000000
   20.508664    0.527334    0.527334    0.527334   -0.000000    0.000000   -0.000000
   20.945019    0.531583    0.531583    0.531583    0.000000    0.000000   -0.000000
   21.381373    0.453088    0.453088    0.453088   -0.000000    0.000000   -0.000000
   21.817728    0.429241    0.429241    0.429241   -0.000000   -0.000000    0.000000
   22.254082    0.437405    0.437405    0.437405   -0.000000   -0.000000    0.000000
   22.690437    0.424349    0.424349    0.424349   -0.000000    0.000000   -0.000000
   23.126791    0.447788    0.447788    0.447788    0.000000    0.000000   -0.000000
   23.563146    0.420729    0.420729    0.420729   -0.000000   -0.000000   -0.000000
   23.999500    0.391648    0.391648    0.391648    0.000000   -0.000000   -0.000000
   24.435855    0.348992    0.348992    0.348992    0.000000    0.000000    0.000000
   24.872210    0.343376    0.343376    0.343376    0.000000    0.000000    0.000000
   25.308564    0.330660    0.330660    0.330660    0.000000    0.000000    0.000000
   25.744919    0.293673    0.293673    0.293673   -0.000000   -0.000000    0.000000
   26.181273    0.268610    0.268610    0.268610   -0.000000   -0.000000   -0.000000
   26.617628    0.237232    0.237232    0.237232   -0.000000    0.000000   -0.000000
   27.053982    0.249732    0.249732    0.249732    0.000000    0.000000   -0.000000
   27.490337    0.227450    0.227450    0.227450   -0.000000    0.000000   -0.000000
   27.926691    0.245516    0.245516    0.245516   -0.000000   -0.000000    0.000000
   28.363046    0.252336    0.252336    0.252336    0.000000    0.000000    0.000000
   28.799401    0.267060    0.267060    0.267060   -0.000000    0.000000   -0.000000
   29.235755    0.257095    0.257095    0.257095   -0.000000   -0.000000    0.000000
   29.672110    0.274734    0.274734    0.274734    0.000000   -0.000000    0.000000
   30.108464    0.214289    0.214289    0.214289    0.000000    0.000000   -0.000000
   30.544819    0.126582    0.126582    0.126582    0.000000   -0.000000   -0.000000
   30.981173    0.089869    0.089869    0.089869    0.000000   -0.000000   -0.000000
   31.417528    0.054090    0.054090    0.054090   -0.000000    0.000000   -0.000000
   31.853882    0.028247    0.028247    0.028247    0.000000    0.000000   -0.000000
   32.290237    0.014543    0.014543    0.014543    0.000000    0.000000   -0.000000
   32.726591    0.007471    0.007471    0.007471    0.000000    0.000000   -0.000000
   33.162946    0.006098    0.006098    0.006098    0.000000    0.000000   -0.000000
   33.599301    0.004815    0.004815    0.004815    0.000000   -0.000000   -0.000000
   34.035655    0.004076    0.004076    0.004076    0.000000   -0.000000   -0.000000
   34.472010    0.003595    0.003595    0.003595    0.000000   -0.000000   -0.000000
   34.908364    0.003216    0.003216    0.003216    0.000000    0.000000   -0.000000
   35.344719    0.002931    0.002931    0.002931    0.000000    0.000000   -0.000000
   35.781073    0.002601    0.002601    0.002601    0.000000   -0.000000   -0.000000
   36.217428    0.002394    0.002394    0.002394    0.000000   -0.000000   -0.000000
   36.653782    0.002217    0.002217    0.002217    0.000000   -0.000000   -0.000000
   37.090137    0.002072    0.002072    0.002072    0.000000   -0.000000   -0.000000
   37.526492    0.001945    0.001945    0.001945    0.000000   -0.000000   -0.000000
   37.962846    0.001831    0.001831    0.001831    0.000000   -0.000000   -0.000000
   38.399201    0.001729    0.001729    0.001729    0.000000   -0.000000   -0.000000
   38.835555    0.001637    0.001637    0.001637    0.000000   -0.000000   -0.000000
   39.271910    0.001552    0.001552    0.001552    0.000000   -0.000000   -0.000000
   39.708264    0.001475    0.001475    0.001475    0.000000   -0.000000   -0.000000
   40.144619    0.001404    0.001404    0.001404    0.000000   -0.000000   -0.000000
   40.580973    0.001339    0.001339    0.001339    0.000000   -0.000000   -0.000000
   41.017328    0.001278    0.001278    0.001278    0.000000   -0.000000   -0.000000
   41.453683    0.001221    0.001221    0.001221    0.000000   -0.000000   -0.000000
   41.890037    0.001169    0.001169    0.001169    0.000000   -0.000000   -0.000000
   42.326392    0.001120    0.001120    0.001120    0.000000   -0.000000   -0.000000
   42.762746    0.001074    0.001074    0.001074    0.000000   -0.000000   -0.000000
   43.199101    0.001031    0.001031    0.001031    0.000000   -0.000000   -0.000000

  frequency dependent      REAL DIELECTRIC FUNCTION (independent particle, no local field effects)
     E(ev)      X         Y         Z        XY        YZ        ZX
  --------------------------------------------------------------------------------------
    0.000000  100.671333  100.671333  100.671333    0.000000    0.000000   -0.000000
    0.436355    1.545409    1.545409    1.545409    0.000000   -0.000000    0.000000
    0.872709    1.429949    1.429949    1.429949    0.000000   -0.000000   -0.000000
    1.309064    5.208098    5.208098    5.208098    0.000000   -0.000000    0.000000
    1.745418   10.611766   10.611766   10.611766    0.000000   -0.000000   -0.000000
    2.181773   14.519657   14.519657   14.519657    0.000000   -0.000000   -0.000000
    2.618127   15.768607   15.768607   15.768607    0.000000    0.000000   -0.000000
    3.054482    7.022431    7.022431    7.022431    0.000000   -0.000000    0.000000
    3.490836   -0.836574   -0.836574   -0.836574    0.000000    0.000000    0.000000
    3.927191   -2.890788   -2.890788   -2.890788   -0.000000    0.000000   -0.000000
    4.363546   -3.208681   -3.208681   -3.208681   -0.000000    0.000000    0.000000
    4.799900   -2.581160   -2.581160   -2.581160    0.000000    0.000000    0.000000
    5.236255   -2.807809   -2.807809   -2.807809   -0.000000    0.000000    0.000000
    5.672609   -1.497195   -1.497195   -1.497195   -0.000000    0.000000   -0.000000
    6.108964   -1.883157   -1.883157   -1.883157   -0.000000    0.000000    0.000000
    6.545318   -1.633140   -1.633140   -1.633140   -0.000000    0.000000    0.000000
    6.981673   -1.136503   -1.136503   -1.136503    0.000000    0.000000    0.000000
    7.418027   -0.946532   -0.946532   -0.946532   -0.000000    0.000000    0.000000
    7.854382   -0.098590   -0.098590   -0.098590   -0.000000    0.000000    0.000000
    8.290737    0.138914    0.138914    0.138914   -0.000000    0.000000    0.000000
    8.727091    0.371916    0.371916    0.371916   -0.000000    0.000000    0.000000
    9.163446    0.119282    0.119282    0.119282   -0.000000   -0.000000    0.000000
    9.599800   -0.445910   -0.445910   -0.445910    0.000000    0.000000    0.000000
   10.036155   -0.473176   -0.473176   -0.473176    0.000000    0.000000    0.000000
   10.472509   -0.260310   -0.260310   -0.260310   -0.000000    0.000000    0.000000
   10.908864   -0.092078   -0.092078   -0.092078    0.000000    0.000000   -0.000000
   11.345218   -0.127199   -0.127199   -0.127199   -0.000000    0.000000    0.000000
   11.781573   -0.174950   -0.174950   -0.174950   -0.000000    0.000000    0.000000
   12.217927   -0.224605   -0.224605   -0.224605   -0.000000    0.000000    0.000000
   12.654282   -0.190360   -0.190360   -0.190360    0.000000    0.000000    0.000000
   13.090637   -0.306846   -0.306846   -0.306846   -0.000000    0.000000    0.000000
   13.526991   -0.183134   -0.183134   -0.183134   -0.000000    0.000000    0.000000
   13.963346   -0.114370   -0.114370   -0.114370    0.000000    0.000000    0.000000
   14.399700   -0.029209   -0.029209   -0.029209   -0.000000    0.000000    0.000000
   14.836055   -0.031738   -0.031738   -0.031738   -0.000000    0.000000    0.000000
   15.272409   -0.017533   -0.017533   -0.017533    0.000000    0.000000    0.000000
   15.708764    0.024139    0.024139    0.024139   -0.000000    0.000000    0.000000
   16.145118    0.116078    0.116078    0.116078   -0.000000    0.000000    0.000000
   16.581473    0.145006    0.145006    0.145006   -0.000000   -0.000000    0.000000
   17.017828    0.219899    0.219899    0.219899   -0.000000   -0.000000    0.000000
   17.454182    0.266441    0.266441    0.266441   -0.000000    0.000000    0.000000
   17.890537    0.310590    0.310590    0.310590    0.000000    0.000000    0.000000
   18.326891    0.303416    0.303416    0.303416   -0.000000    0.000000   -0.000000
   18.763246    0.321323    0.321323    0.321323   -0.000000    0.000000    0.000000
   19.199600    0.280942    0.280942    0.280942   -0.000000    0.000000    0.000000
   19.635955    0.322028    0.322028    0.322028   -0.000000    0.000000   -0.000000
   20.072309    0.387843    0.387843    0.387843   -0.000000   -0.000000   -0.000000
   20.508664    0.405049    0.405049    0.405049    0.000000    0.000000    0.000000
   20.945019    0.373390    0.373390    0.373390   -0.000000    0.000000    0.000000
   21.381373    0.345059    0.345059    0.345059   -0.000000   -0.000000    0.000000
   21.817728    0.410637    0.410637    0.410637   -0.000000    0.000000    0.000000
   22.254082    0.420393    0.420393    0.420393   -0.000000    0.000000    0.000000
   22.690437    0.446560    0.446560    0.446560    0.000000    0.000000   -0.000000
   23.126791    0.413959    0.413959    0.413959   -0.000000    0.000000    0.000000
   23.563146    0.424696    0.424696    0.424696   -0.000000    0.000000    0.000000
   23.999500    0.384447    0.384447    0.384447    0.000000    0.000000    0.000000
   24.435855    0.412657    0.412657    0.412657   -0.000000    0.000000    0.000000
   24.872210    0.430024    0.430024    0.430024   -0.000000   -0.000000    0.000000
   25.308564    0.423601    0.423601    0.423601   -0.000000   -0.000000    0.000000
   25.744919    0.422169    0.422169    0.422169   -0.000000   -0.000000    0.000000
   26.181273    0.447433    0.447433    0.447433   -0.000000    0.000000   -0.000000
   26.617628    0.466034    0.466034    0.466034    0.000000    0.000000    0.000000
   27.053982    0.500089    0.500089    0.500089   -0.000000    0.000000    0.000000
   27.490337    0.507939    0.507939    0.507939   -0.000000   -0.000000    0.000000
   27.926691    0.531728    0.531728    0.531728   -0.000000   -0.000000    0.000000
   28.363046    0.533162    0.533162    0.533162    0.000000    0.000000    0.000000
   28.799401    0.515064    0.515064    0.515064   -0.000000   -0.000000    0.000000
   29.235755    0.505113    0.505113    0.505113    0.000000    0.000000    0.000000
   29.672110    0.481978    0.481978    0.481978    0.000000    0.000000   -0.000000
   30.108464    0.386893    0.386893    0.386893   -0.000000    0.000000   -0.000000
   30.544819    0.417696    0.417696    0.417696   -0.000000    0.000000    0.000000
   30.981173    0.453674    0.453674    0.453674   -0.000000   -0.000000    0.000000
   31.417528    0.475193    0.475193    0.475193   -0.000000    0.000000    0.000000
   31.853882    0.515399    0.515399    0.515399   -0.000000    0.000000    0.000000
   32.290237    0.548733    0.548733    0.548733   -0.000000    0.000000    0.000000
   32.726591    0.578982    0.578982    0.578982   -0.000000    0.000000    0.000000
   33.162946    0.603634    0.603634    0.603634   -0.000000    0.000000    0.000000
   33.599301    0.623545    0.623545    0.623545   -0.000000    0.000000    0.000000
   34.035655    0.641097    0.641097    0.641097   -0.000000    0.000000    0.000000
   34.472010    0.656662    0.656662    0.656662   -0.000000    0.000000    0.000000
   34.908364    0.670545    0.670545    0.670545   -0.000000    0.000000    0.000000
   35.344719    0.683136    0.683136    0.683136   -0.000000    0.000000    0.000000
   35.781073    0.694812    0.694812    0.694812   -0.000000    0.000000    0.000000
   36.217428    0.705597    0.705597    0.705597   -0.000000    0.000000    0.000000
   36.653782    0.715618    0.715618    0.715618   -0.000000    0.000000    0.000000
   37.090137    0.724966    0.724966    0.724966   -0.000000    0.000000    0.000000
   37.526492    0.733723    0.733723    0.733723   -0.000000    0.000000    0.000000
   37.962846    0.741956    0.741956    0.741956   -0.000000    0.000000    0.000000
   38.399201    0.749719    0.749719    0.749719   -0.000000    0.000000    0.000000
   38.835555    0.757059    0.757059    0.757059   -0.000000    0.000000    0.000000
   39.271910    0.764013    0.764013    0.764013   -0.000000    0.000000    0.000000
   39.708264    0.770616    0.770616    0.770616   -0.000000    0.000000    0.000000
   40.144619    0.776895    0.776895    0.776895   -0.000000    0.000000    0.000000
   40.580973    0.782876    0.782876    0.782876   -0.000000    0.000000    0.000000
   41.017328    0.788583    0.788583    0.788583   -0.000000    0.000000    0.000000
   41.453683    0.794034    0.794034    0.794034   -0.000000    0.000000    0.000000
   41.890037    0.799248    0.799248    0.799248   -0.000000    0.000000    0.000000
   42.326392    0.804240    0.804240    0.804240   -0.000000    0.000000    0.000000
   42.762746    0.809025    0.809025    0.809025   -0.000000    0.000000    0.000000
   43.199101    0.813616    0.813616    0.813616   -0.000000    0.000000    0.000000
 
 The outermost node in the dielectric function lies at epsilon=  15.5


--------------------------------------------------------------------------------------------------------


    OPTICS:  cpu time   18.19: real time   37.61
    4ORBIT:  cpu time    0.00: real time    0.00

volume of typ            1:    26.9 %

volume of typ            2:    43.6 %
 
total charge     
 
# of ion     s       p       d       tot
----------------------------------------
  1        0.848   0.856   8.678  10.382
  2        0.758   0.906   0.194   1.859
  3        0.758   0.906   0.194   1.859
------------------------------------------------
tot         2.36    2.67    9.07   14.10
 
orbital moment (x)
 
# of ion   s             p             d             tot
---------------------------------------------------------------
   1     0.000000E+00  0.486859E-08 -0.981511E-08 -0.494652E-08
   2     0.000000E+00  0.580894E-04 -0.867815E-02 -0.862006E-02
   3     0.000000E+00 -0.580947E-04  0.867813E-02  0.862004E-02
----------------------------------------------------------------------------
tot      0.000000E+00 -0.420569E-09 -0.220952E-07 -0.225158E-07
 
orbital moment (y)
 
# of ion   s             p             d             tot
---------------------------------------------------------------
   1     0.000000E+00 -0.381675E-08 -0.383392E-08 -0.765067E-08
   2     0.000000E+00  0.501717E-01 -0.185372E-01  0.316345E-01
   3     0.000000E+00 -0.501717E-01  0.185372E-01 -0.316345E-01
----------------------------------------------------------------------------
tot      0.000000E+00 -0.179915E-07 -0.768435E-08 -0.256759E-07
 
orbital moment (z)
 
# of ion   s             p             d             tot
---------------------------------------------------------------
   1     0.000000E+00  0.116804E-07 -0.453257E-08  0.714784E-08
   2     0.000000E+00  0.105863E-02  0.931455E-02  0.103732E-01
   3     0.000000E+00 -0.105861E-02 -0.931458E-02 -0.103732E-01
----------------------------------------------------------------------------
tot      0.000000E+00  0.329933E-07 -0.341890E-07 -0.119570E-08
 

 total amount of memory used by VASP on root node    35211. kBytes
========================================================================

   base      :      30000. kBytes
   nonl-proj :       1396. kBytes
   fftplans  :        216. kBytes
   grid      :        311. kBytes
   one-center:         15. kBytes
   wavefun   :       3273. kBytes
 
  
  
 General timing and accounting informations for this job:
 ========================================================
  
                  Total CPU time used (sec):       67.164
                            User time (sec):       59.542
                          System time (sec):        7.621
                         Elapsed time (sec):       88.927
  
                   Maximum memory used (kb):       52864.
                   Average memory used (kb):           0.
  
                          Minor page faults:        30431
                          Major page faults:            6
                 Voluntary context switches:        95043
