PROCAR new format
# of k-points:  110         # of bands:  30         # of ions:   3

 k-point    1 :    0.05000000 0.05000000 0.05000000     weight = 0.00200000

band   1 # energy   -4.03563408 # occ.  2.00000000
 
ion      s      p      d    tot
  1  0.263  0.001  0.000  0.264
  2  0.205  0.001  0.000  0.206
  3  0.205  0.001  0.000  0.206
tot  0.673  0.002  0.000  0.675
 
band   2 # energy   -0.12114851 # occ.  2.00000000
 
ion      s      p      d    tot
  1  0.000  0.000  0.790  0.790
  2  0.002  0.061  0.004  0.067
  3  0.002  0.061  0.004  0.067
tot  0.005  0.122  0.798  0.925
 
band   3 # energy   -0.10162673 # occ.  2.00000000
 
ion      s      p      d    tot
  1  0.000  0.000  0.794  0.794
  2  0.000  0.062  0.004  0.066
  3  0.000  0.062  0.004  0.066
tot  0.000  0.123  0.803  0.926
 
band   4 # energy   -0.10162673 # occ.  2.00000000
 
ion      s      p      d    tot
  1  0.000  0.000  0.794  0.794
  2  0.000  0.062  0.004  0.066
  3  0.000  0.062  0.004  0.066
tot  0.000  0.123  0.803  0.926
 
band   5 # energy    0.87742136 # occ.  2.00000000
 
ion      s      p      d    tot
  1  0.000  0.000  0.884  0.884
  2  0.000  0.000  0.016  0.016
  3  0.000  0.000  0.016  0.016
tot  0.000  0.000  0.915  0.915
 
band   6 # energy    0.87742136 # occ.  2.00000000
 
ion      s      p      d    tot
  1  0.000  0.000  0.884  0.884
  2  0.000  0.000  0.016  0.016
  3  0.000  0.000  0.016  0.016
tot  0.000  0.000  0.915  0.915
 
band   7 # energy    8.72742895 # occ.  0.00000000
 
ion      s      p      d    tot
  1  0.007  0.108  0.058  0.173
  2  0.233  0.038  0.033  0.304
  3  0.233  0.038  0.033  0.304
tot  0.473  0.184  0.124  0.781
 
band   8 # energy    9.15054014 # occ.  0.00000000
 
ion      s      p      d    tot
  1  0.015  0.180  0.007  0.201
  2  0.184  0.034  0.057  0.275
  3  0.184  0.034  0.057  0.275
tot  0.383  0.247  0.121  0.751
 
band   9 # energy    9.43335907 # occ.  0.00000000
 
ion      s      p      d    tot
  1  0.000  0.336  0.030  0.366
  2  0.000  0.054  0.105  0.159
  3  0.000  0.054  0.105  0.159
tot  0.000  0.444  0.239  0.684
 
band  10 # energy    9.43335907 # occ.  0.00000000
 
ion      s      p      d    tot
  1  0.000  0.336  0.030  0.366
  2  0.000  0.054  0.105  0.159
  3  0.000  0.054  0.105  0.159
tot  0.000  0.444  0.239  0.684
 
band  11 # energy   10.81011588 # occ.  0.00000000
 
ion      s      p      d    tot
  1  0.000  0.048  0.212  0.260
  2  0.000  0.206  0.021  0.227
  3  0.000  0.206  0.021  0.227
tot  0.000  0.460  0.254  0.714
 
band  12 # energy   10.81011588 # occ.  0.00000000
 
ion      s      p      d    tot
  1  0.000  0.048  0.212  0.260
  2  0.000  0.206  0.021  0.227
  3  0.000  0.206  0.021  0.227
tot  0.000  0.460  0.254  0.714
 
band  13 # energy   11.16772319 # occ.  0.00000000
 
ion      s      p      d    tot
  1  0.017  0.063  0.181  0.261
  2  0.010  0.184  0.030  0.225
  3  0.010  0.184  0.030  0.225
tot  0.037  0.432  0.242  0.711
 
band  14 # energy   12.34052842 # occ.  0.00000000
 
ion      s      p      d    tot
  1  0.000  0.025  0.013  0.038
  2  0.000  0.232  0.021  0.253
  3  0.000  0.232  0.021  0.253
tot  0.000  0.489  0.056  0.544
 
band  15 # energy   12.34052842 # occ.  0.00000000
 
ion      s      p      d    tot
  1  0.000  0.025  0.013  0.038
  2  0.000  0.232  0.021  0.253
  3  0.000  0.232  0.021  0.253
tot  0.000  0.489  0.056  0.544
 
band  16 # energy   12.36858995 # occ.  0.00000000
 
ion      s      p      d    tot
  1  0.001  0.032  0.000  0.033
  2  0.006  0.238  0.012  0.256
  3  0.006  0.238  0.012  0.256
tot  0.013  0.508  0.024  0.545
 
band  17 # energy   13.55778633 # occ.  0.00000000
 
ion      s      p      d    tot
  1  0.411  0.028  0.001  0.440
  2  0.019  0.002  0.007  0.028
  3  0.019  0.002  0.007  0.028
tot  0.449  0.031  0.015  0.495
 
band  18 # energy   15.19111443 # occ.  0.00000000
 
ion      s      p      d    tot
  1  0.000  0.005  0.151  0.156
  2  0.000  0.012  0.216  0.228
  3  0.000  0.012  0.216  0.228
tot  0.000  0.029  0.584  0.612
 
band  19 # energy   15.19111443 # occ.  0.00000000
 
ion      s      p      d    tot
  1  0.000  0.005  0.151  0.156
  2  0.000  0.012  0.216  0.228
  3  0.000  0.012  0.216  0.228
tot  0.000  0.029  0.584  0.612
 
band  20 # energy   18.16111813 # occ.  0.00000000
 
ion      s      p      d    tot
  1  0.129  0.002  0.000  0.131
  2  0.177  0.010  0.000  0.188
  3  0.177  0.010  0.000  0.188
tot  0.484  0.023  0.000  0.507
 
band  21 # energy   26.51281553 # occ.  0.00000000
 
ion      s      p      d    tot
  1  0.000  0.003  0.080  0.083
  2  0.000  0.007  0.303  0.310
  3  0.000  0.007  0.303  0.310
tot  0.000  0.017  0.685  0.703
 
band  22 # energy   26.51281554 # occ.  0.00000000
 
ion      s      p      d    tot
  1  0.000  0.003  0.080  0.083
  2  0.000  0.007  0.303  0.310
  3  0.000  0.007  0.303  0.310
tot  0.000  0.017  0.685  0.703
 
band  23 # energy   26.62620766 # occ.  0.00000000
 
ion      s      p      d    tot
  1  0.000  0.012  0.079  0.091
  2  0.000  0.020  0.338  0.358
  3  0.000  0.020  0.338  0.358
tot  0.001  0.051  0.755  0.807
 
band  24 # energy   28.37390737 # occ.  0.00000000
 
ion      s      p      d    tot
  1  0.000  0.000  0.000  0.000
  2  0.000  0.000  0.000  0.000
  3  0.000  0.000  0.000  0.000
tot  0.000  0.000  0.000  0.000
 
band  25 # energy   28.56553394 # occ.  0.00000000
 
ion      s      p      d    tot
  1  0.000  0.000  0.019  0.020
  2  0.000  0.000  0.057  0.058
  3  0.000  0.000  0.057  0.058
tot  0.000  0.001  0.134  0.135
 
band  26 # energy   28.56553394 # occ.  0.00000000
 
ion      s      p      d    tot
  1  0.000  0.000  0.019  0.020
  2  0.000  0.000  0.057  0.058
  3  0.000  0.000  0.057  0.058
tot  0.000  0.001  0.134  0.135
 
band  27 # energy   30.72348081 # occ.  0.00000000
 
ion      s      p      d    tot
  1  0.000  0.166  0.022  0.188
  2  0.000  0.140  0.013  0.153
  3  0.000  0.140  0.013  0.153
tot  0.000  0.447  0.048  0.495
 
band  28 # energy   30.72348588 # occ.  0.00000000
 
ion      s      p      d    tot
  1  0.000  0.166  0.022  0.188
  2  0.000  0.141  0.013  0.153
  3  0.000  0.140  0.013  0.153
tot  0.000  0.447  0.048  0.495
 
band  29 # energy   31.08570853 # occ.  0.00000000
 
ion      s      p      d    tot
  1  0.001  0.187  0.005  0.193
  2  0.004  0.153  0.026  0.183
  3  0.004  0.153  0.026  0.183
tot  0.009  0.493  0.058  0.560
 
band  30 # energy   31.84620275 # occ.  0.00000000
 
ion      s      p      d    tot
  1  0.000  0.000  0.000  0.000
  2  0.000  0.005  0.433  0.437
  3  0.000  0.005  0.434  0.438
tot  0.000  0.009  0.866  0.876
 

 k-point    2 :    0.15000000 0.05000000 0.05000000     weight = 0.00600000

band   1 # energy   -3.85871810 # occ.  2.00000000
 
ion      s      p      d    tot
  1  0.260  0.004  0.000  0.264
  2  0.202  0.004  0.000  0.206
  3  0.202  0.004  0.000  0.206
tot  0.664  0.012  0.001  0.677
 
band   2 # energy   -0.18013404 # occ.  2.00000000
 
ion      s      p      d    tot
  1  0.000  0.001  0.773  0.774
  2  0.014  0.056  0.004  0.073
  3  0.014  0.056  0.004  0.073
tot  0.027  0.113  0.781  0.920
 
band   3 # energy   -0.05990984 # occ.  2.00000000
 
ion      s      p      d    tot
  1  0.000  0.000  0.799  0.799
  2  0.000  0.059  0.005  0.064
  3  0.000  0.059  0.005  0.064
tot  0.000  0.118  0.810  0.928
 
band   4 # energy   -0.05119552 # occ.  2.00000000
 
ion      s      p      d    tot
  1  0.000  0.001  0.796  0.797
  2  0.000  0.060  0.005  0.065
  3  0.000  0.060  0.005  0.065
tot  0.000  0.121  0.806  0.926
 
band   5 # energy    0.84880148 # occ.  2.00000000
 
ion      s      p      d    tot
  1  0.000  0.000  0.878  0.878
  2  0.000  0.002  0.015  0.017
  3  0.000  0.002  0.015  0.017
tot  0.000  0.004  0.907  0.911
 
band   6 # energy    0.88869628 # occ.  2.00000000
 
ion      s      p      d    tot
  1  0.000  0.000  0.884  0.884
  2  0.000  0.001  0.015  0.015
  3  0.000  0.001  0.015  0.015
tot  0.000  0.001  0.913  0.915
 
band   7 # energy    7.38564515 # occ.  0.00000037
 
ion      s      p      d    tot
  1  0.049  0.189  0.095  0.332
  2  0.055  0.083  0.053  0.191
  3  0.055  0.083  0.053  0.191
tot  0.159  0.354  0.200  0.713
 
band   8 # energy    8.14416000 # occ.  0.00000000
 
ion      s      p      d    tot
  1  0.018  0.196  0.091  0.305
  2  0.069  0.088  0.053  0.209
  3  0.069  0.088  0.053  0.209
tot  0.155  0.371  0.197  0.723
 
band   9 # energy    9.37813843 # occ.  0.00000000
 
ion      s      p      d    tot
  1  0.005  0.102  0.006  0.113
  2  0.276  0.032  0.031  0.339
  3  0.276  0.032  0.031  0.339
tot  0.558  0.166  0.068  0.792
 
band  10 # energy    9.37858274 # occ.  0.00000000
 
ion      s      p      d    tot
  1  0.000  0.353  0.024  0.378
  2  0.000  0.075  0.097  0.172
  3  0.000  0.075  0.097  0.172
tot  0.000  0.503  0.218  0.721
 
band  11 # energy   10.81921028 # occ.  0.00000000
 
ion      s      p      d    tot
  1  0.000  0.038  0.211  0.250
  2  0.000  0.218  0.018  0.236
  3  0.000  0.218  0.018  0.236
tot  0.000  0.475  0.246  0.721
 
band  12 # energy   11.50615519 # occ.  0.00000000
 
ion      s      p      d    tot
  1  0.080  0.066  0.154  0.300
  2  0.019  0.178  0.024  0.222
  3  0.019  0.178  0.024  0.222
tot  0.119  0.423  0.202  0.744
 
band  13 # energy   11.81689686 # occ.  0.00000000
 
ion      s      p      d    tot
  1  0.008  0.004  0.032  0.044
  2  0.011  0.161  0.040  0.212
  3  0.011  0.161  0.040  0.212
tot  0.031  0.326  0.112  0.469
 
band  14 # energy   11.84383932 # occ.  0.00000000
 
ion      s      p      d    tot
  1  0.000  0.000  0.058  0.058
  2  0.000  0.161  0.060  0.221
  3  0.000  0.161  0.060  0.221
tot  0.000  0.322  0.178  0.500
 
band  15 # energy   12.33887432 # occ.  0.00000000
 
ion      s      p      d    tot
  1  0.025  0.128  0.127  0.279
  2  0.016  0.189  0.034  0.240
  3  0.016  0.189  0.034  0.240
tot  0.058  0.506  0.195  0.759
 
band  16 # energy   12.58399946 # occ.  0.00000000
 
ion      s      p      d    tot
  1  0.000  0.002  0.014  0.016
  2  0.005  0.196  0.040  0.241
  3  0.005  0.196  0.040  0.241
tot  0.009  0.395  0.093  0.498
 
band  17 # energy   14.75955967 # occ.  0.00000000
 
ion      s      p      d    tot
  1  0.272  0.103  0.018  0.394
  2  0.014  0.013  0.036  0.063
  3  0.014  0.013  0.036  0.063
tot  0.300  0.130  0.090  0.520
 
band  18 # energy   15.50115279 # occ.  0.00000000
 
ion      s      p      d    tot
  1  0.001  0.019  0.121  0.141
  2  0.004  0.020  0.200  0.223
  3  0.004  0.020  0.200  0.223
tot  0.008  0.058  0.520  0.586
 
band  19 # energy   16.23806632 # occ.  0.00000000
 
ion      s      p      d    tot
  1  0.000  0.020  0.107  0.127
  2  0.000  0.047  0.192  0.239
  3  0.000  0.047  0.192  0.239
tot  0.000  0.113  0.491  0.605
 
band  20 # energy   18.85324230 # occ.  0.00000000
 
ion      s      p      d    tot
  1  0.120  0.013  0.001  0.134
  2  0.143  0.057  0.003  0.203
  3  0.143  0.057  0.003  0.203
tot  0.405  0.126  0.008  0.539
 
band  21 # energy   24.79777419 # occ.  0.00000000
 
ion      s      p      d    tot
  1  0.000  0.024  0.083  0.107
  2  0.003  0.037  0.210  0.249
  3  0.003  0.037  0.210  0.249
tot  0.005  0.098  0.502  0.605
 
band  22 # energy   25.62964087 # occ.  0.00000000
 
ion      s      p      d    tot
  1  0.000  0.004  0.085  0.088
  2  0.000  0.009  0.247  0.256
  3  0.000  0.009  0.247  0.256
tot  0.000  0.021  0.579  0.600
 
band  23 # energy   25.72086605 # occ.  0.00000000
 
ion      s      p      d    tot
  1  0.000  0.034  0.060  0.094
  2  0.002  0.052  0.280  0.334
  3  0.002  0.052  0.280  0.334
tot  0.004  0.138  0.620  0.762
 
band  24 # energy   28.01777904 # occ.  0.00000000
 
ion      s      p      d    tot
  1  0.000  0.011  0.032  0.043
  2  0.000  0.009  0.017  0.026
  3  0.000  0.009  0.017  0.026
tot  0.000  0.030  0.067  0.096
 
band  25 # energy   28.67781289 # occ.  0.00000000
 
ion      s      p      d    tot
  1  0.000  0.010  0.060  0.070
  2  0.001  0.013  0.090  0.105
  3  0.001  0.013  0.090  0.104
tot  0.002  0.036  0.240  0.279
 
band  26 # energy   29.68064262 # occ.  0.00000000
 
ion      s      p      d    tot
  1  0.000  0.012  0.023  0.035
  2  0.000  0.008  0.101  0.109
  3  0.000  0.008  0.101  0.109
tot  0.000  0.028  0.224  0.253
 
band  27 # energy   30.13923820 # occ.  0.00000000
 
ion      s      p      d    tot
  1  0.000  0.119  0.005  0.124
  2  0.000  0.097  0.016  0.114
  3  0.000  0.097  0.016  0.114
tot  0.000  0.314  0.038  0.352
 
band  28 # energy   30.75489615 # occ.  0.00000000
 
ion      s      p      d    tot
  1  0.000  0.002  0.000  0.002
  2  0.000  0.032  0.369  0.402
  3  0.000  0.032  0.369  0.402
tot  0.000  0.067  0.739  0.806
 
band  29 # energy   30.82169569 # occ.  0.00000000
 
ion      s      p      d    tot
  1  0.004  0.132  0.025  0.161
  2  0.012  0.087  0.065  0.163
  3  0.012  0.087  0.065  0.163
tot  0.027  0.307  0.154  0.487
 
band  30 # energy   31.30975991 # occ.  0.00000000
 
ion      s      p      d    tot
  1  0.000  0.009  0.001  0.010
  2  0.001  0.020  0.385  0.406
  3  0.001  0.019  0.385  0.406
tot  0.003  0.048  0.771  0.822
 

 k-point    3 :    0.25000000 0.05000000 0.05000000     weight = 0.00600000

band   1 # energy   -3.43160005 # occ.  2.00000000
 
ion      s      p      d    tot
  1  0.253  0.011  0.005  0.269
  2  0.193  0.013  0.001  0.206
  3  0.193  0.013  0.001  0.206
tot  0.639  0.036  0.006  0.682
 
band   2 # energy   -0.28213138 # occ.  2.00000000
 
ion      s      p      d    tot
  1  0.000  0.006  0.727  0.734
  2  0.037  0.046  0.003  0.086
  3  0.037  0.046  0.003  0.086
tot  0.075  0.098  0.733  0.906
 
band   3 # energy    0.02798832 # occ.  2.00000000
 
ion      s      p      d    tot
  1  0.000  0.000  0.809  0.809
  2  0.000  0.054  0.007  0.061
  3  0.000  0.054  0.007  0.061
tot  0.000  0.107  0.823  0.931
 
band   4 # energy    0.03361403 # occ.  2.00000000
 
ion      s      p      d    tot
  1  0.000  0.001  0.802  0.803
  2  0.000  0.055  0.006  0.061
  3  0.000  0.055  0.006  0.061
tot  0.000  0.112  0.814  0.926
 
band   5 # energy    0.83112611 # occ.  2.00000000
 
ion      s      p      d    tot
  1  0.000  0.000  0.872  0.872
  2  0.000  0.004  0.013  0.017
  3  0.000  0.004  0.013  0.017
tot  0.000  0.009  0.898  0.907
 
band   6 # energy    0.90382546 # occ.  2.00000000
 
ion      s      p      d    tot
  1  0.000  0.000  0.885  0.885
  2  0.000  0.002  0.013  0.014
  3  0.000  0.002  0.013  0.014
tot  0.000  0.004  0.910  0.914
 
band   7 # energy    5.25913767 # occ.  2.00000000
 
ion      s      p      d    tot
  1  0.088  0.154  0.128  0.369
  2  0.057  0.081  0.038  0.176
  3  0.057  0.081  0.038  0.176
tot  0.202  0.316  0.204  0.722
 
band   8 # energy    7.53659060 # occ.  0.00000000
 
ion      s      p      d    tot
  1  0.016  0.211  0.088  0.315
  2  0.033  0.122  0.047  0.202
  3  0.033  0.122  0.047  0.202
tot  0.081  0.455  0.182  0.718
 
band   9 # energy    8.58071637 # occ.  0.00000000
 
ion      s      p      d    tot
  1  0.000  0.290  0.044  0.334
  2  0.000  0.135  0.066  0.200
  3  0.000  0.135  0.066  0.200
tot  0.000  0.559  0.175  0.735
 
band  10 # energy    9.61484678 # occ.  0.00000000
 
ion      s      p      d    tot
  1  0.037  0.053  0.042  0.131
  2  0.267  0.031  0.023  0.322
  3  0.267  0.031  0.023  0.322
tot  0.571  0.116  0.087  0.774
 
band  11 # energy   10.90800447 # occ.  0.00000000
 
ion      s      p      d    tot
  1  0.000  0.019  0.178  0.197
  2  0.000  0.205  0.030  0.236
  3  0.000  0.205  0.030  0.236
tot  0.000  0.429  0.239  0.668
 
band  12 # energy   11.01204575 # occ.  0.00000000
 
ion      s      p      d    tot
  1  0.032  0.023  0.091  0.146
  2  0.051  0.154  0.030  0.235
  3  0.051  0.154  0.030  0.235
tot  0.135  0.331  0.151  0.617
 
band  13 # energy   12.06768548 # occ.  0.00000000
 
ion      s      p      d    tot
  1  0.011  0.050  0.064  0.125
  2  0.025  0.191  0.032  0.248
  3  0.025  0.191  0.032  0.248
tot  0.062  0.433  0.127  0.622
 
band  14 # energy   12.26482820 # occ.  0.00000000
 
ion      s      p      d    tot
  1  0.000  0.075  0.087  0.161
  2  0.000  0.093  0.094  0.186
  3  0.000  0.093  0.094  0.186
tot  0.000  0.260  0.274  0.534
 
band  15 # energy   12.41134010 # occ.  0.00000000
 
ion      s      p      d    tot
  1  0.109  0.022  0.078  0.209
  2  0.022  0.126  0.047  0.195
  3  0.022  0.126  0.047  0.195
tot  0.153  0.274  0.172  0.599
 
band  16 # energy   13.61247189 # occ.  0.00000000
 
ion      s      p      d    tot
  1  0.036  0.072  0.075  0.184
  2  0.016  0.123  0.073  0.212
  3  0.016  0.123  0.073  0.212
tot  0.069  0.318  0.221  0.608
 
band  17 # energy   16.59101041 # occ.  0.00000000
 
ion      s      p      d    tot
  1  0.011  0.027  0.069  0.107
  2  0.006  0.049  0.186  0.242
  3  0.006  0.049  0.186  0.242
tot  0.024  0.125  0.442  0.591
 
band  18 # energy   17.28272004 # occ.  0.00000000
 
ion      s      p      d    tot
  1  0.120  0.170  0.033  0.323
  2  0.002  0.024  0.054  0.081
  3  0.002  0.024  0.054  0.081
tot  0.124  0.219  0.141  0.484
 
band  19 # energy   17.66686635 # occ.  0.00000000
 
ion      s      p      d    tot
  1  0.000  0.027  0.067  0.094
  2  0.000  0.058  0.188  0.246
  3  0.000  0.058  0.188  0.246
tot  0.000  0.143  0.443  0.586
 
band  20 # energy   20.19170024 # occ.  0.00000000
 
ion      s      p      d    tot
  1  0.117  0.023  0.009  0.149
  2  0.083  0.145  0.006  0.234
  3  0.083  0.145  0.006  0.234
tot  0.283  0.313  0.021  0.617
 
band  21 # energy   22.80899269 # occ.  0.00000000
 
ion      s      p      d    tot
  1  0.000  0.035  0.100  0.135
  2  0.013  0.049  0.162  0.223
  3  0.013  0.049  0.162  0.223
tot  0.026  0.132  0.424  0.582
 
band  22 # energy   23.84345411 # occ.  0.00000000
 
ion      s      p      d    tot
  1  0.000  0.016  0.107  0.124
  2  0.000  0.034  0.181  0.214
  3  0.000  0.034  0.181  0.214
tot  0.000  0.084  0.468  0.552
 
band  23 # energy   23.91043199 # occ.  0.00000000
 
ion      s      p      d    tot
  1  0.000  0.062  0.042  0.104
  2  0.017  0.067  0.211  0.296
  3  0.017  0.067  0.211  0.296
tot  0.034  0.197  0.465  0.696
 
band  24 # energy   28.01419663 # occ.  0.00000000
 
ion      s      p      d    tot
  1  0.000  0.018  0.036  0.054
  2  0.000  0.017  0.077  0.094
  3  0.000  0.017  0.077  0.094
tot  0.000  0.051  0.190  0.241
 
band  25 # energy   28.86674710 # occ.  0.00000000
 
ion      s      p      d    tot
  1  0.000  0.000  0.005  0.005
  2  0.000  0.051  0.279  0.330
  3  0.000  0.051  0.279  0.330
tot  0.000  0.102  0.562  0.664
 
band  26 # energy   28.98150166 # occ.  0.00000000
 
ion      s      p      d    tot
  1  0.000  0.003  0.064  0.067
  2  0.002  0.015  0.150  0.167
  3  0.002  0.015  0.150  0.167
tot  0.003  0.033  0.363  0.400
 
band  27 # energy   29.69122968 # occ.  0.00000000
 
ion      s      p      d    tot
  1  0.000  0.009  0.017  0.025
  2  0.001  0.041  0.286  0.329
  3  0.001  0.041  0.286  0.329
tot  0.002  0.092  0.589  0.683
 
band  28 # energy   29.90017082 # occ.  0.00000000
 
ion      s      p      d    tot
  1  0.000  0.042  0.019  0.062
  2  0.000  0.023  0.093  0.116
  3  0.000  0.023  0.093  0.116
tot  0.000  0.088  0.205  0.293
 
band  29 # energy   31.04686153 # occ.  0.00000000
 
ion      s      p      d    tot
  1  0.008  0.118  0.017  0.143
  2  0.021  0.056  0.086  0.162
  3  0.021  0.056  0.086  0.162
tot  0.050  0.229  0.188  0.467
 
band  30 # energy   31.08213386 # occ.  0.00000000
 
ion      s      p      d    tot
  1  0.000  0.083  0.011  0.094
  2  0.000  0.077  0.030  0.106
  3  0.000  0.077  0.030  0.106
tot  0.000  0.236  0.070  0.306
 

 k-point    4 :    0.35000000 0.05000000 0.05000000     weight = 0.00600000

band   1 # energy   -2.81340201 # occ.  2.00000000
 
ion      s      p      d    tot
  1  0.241  0.016  0.032  0.289
  2  0.178  0.024  0.001  0.204
  3  0.178  0.024  0.001  0.204
tot  0.598  0.065  0.034  0.697
 
band   2 # energy   -0.33829298 # occ.  2.00000000
 
ion      s      p      d    tot
  1  0.003  0.021  0.630  0.654
  2  0.069  0.037  0.002  0.109
  3  0.069  0.037  0.002  0.109
tot  0.142  0.096  0.634  0.871
 
band   3 # energy    0.10560742 # occ.  2.00000000
 
ion      s      p      d    tot
  1  0.001  0.002  0.804  0.806
  2  0.000  0.050  0.008  0.058
  3  0.000  0.050  0.008  0.058
tot  0.001  0.101  0.820  0.922
 
band   4 # energy    0.10867449 # occ.  2.00000000
 
ion      s      p      d    tot
  1  0.000  0.000  0.816  0.816
  2  0.000  0.047  0.009  0.056
  3  0.000  0.047  0.009  0.056
tot  0.000  0.095  0.834  0.929
 
band   5 # energy    0.86549248 # occ.  2.00000000
 
ion      s      p      d    tot
  1  0.000  0.001  0.877  0.877
  2  0.000  0.005  0.011  0.016
  3  0.000  0.005  0.011  0.016
tot  0.000  0.011  0.899  0.910
 
band   6 # energy    0.94886539 # occ.  2.00000000
 
ion      s      p      d    tot
  1  0.001  0.000  0.891  0.892
  2  0.000  0.002  0.011  0.013
  3  0.000  0.002  0.011  0.013
tot  0.001  0.004  0.913  0.918
 
band   7 # energy    3.34488404 # occ.  2.00000000
 
ion      s      p      d    tot
  1  0.117  0.116  0.188  0.422
  2  0.062  0.071  0.027  0.161
  3  0.062  0.071  0.027  0.161
tot  0.242  0.258  0.243  0.743
 
band   8 # energy    7.03269069 # occ.  0.00961922
 
ion      s      p      d    tot
  1  0.013  0.219  0.062  0.295
  2  0.020  0.149  0.042  0.211
  3  0.020  0.149  0.042  0.211
tot  0.053  0.518  0.145  0.716
 
band   9 # energy    7.77857917 # occ.  0.00000000
 
ion      s      p      d    tot
  1  0.000  0.263  0.029  0.293
  2  0.000  0.164  0.052  0.217
  3  0.000  0.164  0.052  0.217
tot  0.000  0.592  0.134  0.726
 
band  10 # energy    9.78922527 # occ.  0.00000000
 
ion      s      p      d    tot
  1  0.047  0.022  0.056  0.125
  2  0.206  0.044  0.025  0.275
  3  0.206  0.044  0.025  0.275
tot  0.458  0.111  0.106  0.675
 
band  11 # energy   10.53091907 # occ.  0.00000000
 
ion      s      p      d    tot
  1  0.073  0.011  0.138  0.223
  2  0.091  0.109  0.030  0.230
  3  0.091  0.109  0.030  0.230
tot  0.256  0.228  0.198  0.682
 
band  12 # energy   10.67231842 # occ.  0.00000000
 
ion      s      p      d    tot
  1  0.000  0.002  0.196  0.197
  2  0.000  0.184  0.039  0.222
  3  0.000  0.184  0.039  0.222
tot  0.000  0.369  0.273  0.642
 
band  13 # energy   11.54813208 # occ.  0.00000000
 
ion      s      p      d    tot
  1  0.032  0.023  0.096  0.151
  2  0.042  0.156  0.041  0.239
  3  0.042  0.156  0.041  0.239
tot  0.117  0.334  0.178  0.629
 
band  14 # energy   13.46353079 # occ.  0.00000000
 
ion      s      p      d    tot
  1  0.000  0.119  0.072  0.191
  2  0.000  0.072  0.111  0.183
  3  0.000  0.072  0.111  0.183
tot  0.000  0.264  0.293  0.557
 
band  15 # energy   13.51108980 # occ.  0.00000000
 
ion      s      p      d    tot
  1  0.077  0.053  0.041  0.170
  2  0.035  0.130  0.055  0.220
  3  0.035  0.130  0.055  0.220
tot  0.146  0.312  0.152  0.610
 
band  16 # energy   14.85071968 # occ.  0.00000000
 
ion      s      p      d    tot
  1  0.031  0.093  0.048  0.172
  2  0.016  0.113  0.086  0.215
  3  0.016  0.113  0.086  0.215
tot  0.062  0.319  0.220  0.602
 
band  17 # energy   17.92777110 # occ.  0.00000000
 
ion      s      p      d    tot
  1  0.003  0.031  0.025  0.059
  2  0.001  0.047  0.192  0.240
  3  0.001  0.047  0.192  0.240
tot  0.006  0.124  0.409  0.540
 
band  18 # energy   19.17002873 # occ.  0.00000000
 
ion      s      p      d    tot
  1  0.000  0.032  0.029  0.061
  2  0.000  0.041  0.201  0.242
  3  0.000  0.041  0.201  0.242
tot  0.000  0.115  0.431  0.546
 
band  19 # energy   19.92485665 # occ.  0.00000000
 
ion      s      p      d    tot
  1  0.008  0.164  0.019  0.191
  2  0.002  0.079  0.066  0.147
  3  0.002  0.079  0.066  0.147
tot  0.012  0.321  0.152  0.485
 
band  20 # energy   20.69362076 # occ.  0.00000000
 
ion      s      p      d    tot
  1  0.132  0.031  0.057  0.220
  2  0.001  0.181  0.068  0.250
  3  0.001  0.181  0.068  0.250
tot  0.134  0.392  0.193  0.720
 
band  21 # energy   21.41093845 # occ.  0.00000000
 
ion      s      p      d    tot
  1  0.005  0.016  0.127  0.148
  2  0.010  0.088  0.111  0.209
  3  0.010  0.088  0.111  0.209
tot  0.024  0.192  0.350  0.565
 
band  22 # energy   22.05740555 # occ.  0.00000000
 
ion      s      p      d    tot
  1  0.000  0.016  0.134  0.149
  2  0.000  0.071  0.136  0.207
  3  0.000  0.071  0.136  0.207
tot  0.000  0.158  0.405  0.563
 
band  23 # energy   23.16746633 # occ.  0.00000000
 
ion      s      p      d    tot
  1  0.031  0.130  0.006  0.167
  2  0.081  0.026  0.130  0.237
  3  0.081  0.026  0.130  0.237
tot  0.193  0.182  0.265  0.640
 
band  24 # energy   26.52910433 # occ.  0.00000000
 
ion      s      p      d    tot
  1  0.000  0.001  0.010  0.012
  2  0.000  0.078  0.239  0.317
  3  0.000  0.078  0.239  0.317
tot  0.000  0.156  0.489  0.645
 
band  25 # energy   27.34391469 # occ.  0.00000000
 
ion      s      p      d    tot
  1  0.000  0.001  0.004  0.006
  2  0.002  0.062  0.244  0.308
  3  0.002  0.062  0.244  0.308
tot  0.003  0.125  0.493  0.621
 
band  26 # energy   28.50923842 # occ.  0.00000000
 
ion      s      p      d    tot
  1  0.000  0.015  0.036  0.051
  2  0.000  0.008  0.106  0.114
  3  0.000  0.008  0.106  0.114
tot  0.000  0.031  0.248  0.279
 
band  27 # energy   29.55835834 # occ.  0.00000000
 
ion      s      p      d    tot
  1  0.000  0.001  0.068  0.069
  2  0.001  0.010  0.176  0.188
  3  0.001  0.010  0.176  0.188
tot  0.003  0.022  0.420  0.444
 
band  28 # energy   30.10794283 # occ.  0.00000000
 
ion      s      p      d    tot
  1  0.000  0.023  0.006  0.029
  2  0.000  0.005  0.092  0.096
  3  0.000  0.005  0.092  0.096
tot  0.000  0.032  0.189  0.221
 
band  29 # energy   30.66825043 # occ.  0.00000000
 
ion      s      p      d    tot
  1  0.011  0.028  0.006  0.044
  2  0.022  0.011  0.122  0.156
  3  0.022  0.011  0.122  0.156
tot  0.056  0.050  0.249  0.355
 
band  30 # energy   31.85309203 # occ.  0.00000000
 
ion      s      p      d    tot
  1  0.026  0.132  0.016  0.174
  2  0.013  0.072  0.139  0.224
  3  0.013  0.072  0.138  0.224
tot  0.053  0.276  0.293  0.622
 

 k-point    5 :    0.45000000 0.05000000 0.05000000     weight = 0.00600000

band   1 # energy   -2.19654962 # occ.  2.00000000
 
ion      s      p      d    tot
  1  0.219  0.010  0.131  0.360
  2  0.156  0.033  0.002  0.191
  3  0.156  0.033  0.002  0.191
tot  0.530  0.076  0.134  0.741
 
band   2 # energy   -0.19743888 # occ.  2.00000000
 
ion      s      p      d    tot
  1  0.010  0.065  0.394  0.468
  2  0.116  0.038  0.003  0.157
  3  0.116  0.038  0.003  0.157
tot  0.242  0.141  0.400  0.783
 
band   3 # energy    0.14572256 # occ.  2.00000000
 
ion      s      p      d    tot
  1  0.000  0.000  0.817  0.817
  2  0.000  0.044  0.010  0.053
  3  0.000  0.044  0.010  0.053
tot  0.000  0.087  0.836  0.923
 
band   4 # energy    0.14828151 # occ.  2.00000000
 
ion      s      p      d    tot
  1  0.002  0.005  0.780  0.787
  2  0.004  0.047  0.008  0.059
  3  0.004  0.047  0.008  0.059
tot  0.009  0.100  0.796  0.905
 
band   5 # energy    0.94714414 # occ.  2.00000000
 
ion      s      p      d    tot
  1  0.000  0.000  0.894  0.894
  2  0.000  0.003  0.010  0.013
  3  0.000  0.003  0.010  0.013
tot  0.000  0.006  0.913  0.919
 
band   6 # energy    1.00058132 # occ.  2.00000000
 
ion      s      p      d    tot
  1  0.005  0.000  0.895  0.901
  2  0.000  0.001  0.010  0.012
  3  0.000  0.001  0.010  0.012
tot  0.006  0.003  0.916  0.924
 
band   7 # energy    1.77434978 # occ.  2.00000000
 
ion      s      p      d    tot
  1  0.138  0.066  0.348  0.552
  2  0.050  0.054  0.020  0.124
  3  0.050  0.054  0.020  0.124
tot  0.239  0.173  0.388  0.800
 
band   8 # energy    6.74366345 # occ.  0.58541392
 
ion      s      p      d    tot
  1  0.012  0.225  0.032  0.269
  2  0.015  0.167  0.040  0.222
  3  0.015  0.167  0.040  0.222
tot  0.042  0.559  0.112  0.713
 
band   9 # energy    7.17766792 # occ.  0.00030108
 
ion      s      p      d    tot
  1  0.000  0.249  0.011  0.260
  2  0.000  0.181  0.045  0.227
  3  0.000  0.181  0.045  0.227
tot  0.000  0.611  0.102  0.713
 
band  10 # energy    9.77985963 # occ.  0.00000000
 
ion      s      p      d    tot
  1  0.006  0.006  0.052  0.064
  2  0.127  0.076  0.032  0.236
  3  0.127  0.076  0.032  0.236
tot  0.260  0.159  0.117  0.537
 
band  11 # energy   10.39916181 # occ.  0.00000000
 
ion      s      p      d    tot
  1  0.155  0.007  0.173  0.334
  2  0.157  0.054  0.023  0.234
  3  0.157  0.054  0.023  0.234
tot  0.469  0.114  0.219  0.802
 
band  12 # energy   10.57040537 # occ.  0.00000000
 
ion      s      p      d    tot
  1  0.000  0.000  0.208  0.208
  2  0.000  0.174  0.042  0.217
  3  0.000  0.174  0.042  0.217
tot  0.000  0.349  0.293  0.642
 
band  13 # energy   11.13182557 # occ.  0.00000000
 
ion      s      p      d    tot
  1  0.031  0.011  0.127  0.169
  2  0.046  0.144  0.042  0.232
  3  0.046  0.144  0.042  0.232
tot  0.123  0.299  0.211  0.633
 
band  14 # energy   14.77091523 # occ.  0.00000000
 
ion      s      p      d    tot
  1  0.000  0.151  0.040  0.190
  2  0.000  0.054  0.129  0.182
  3  0.000  0.054  0.129  0.182
tot  0.000  0.258  0.297  0.555
 
band  15 # energy   14.86912284 # occ.  0.00000000
 
ion      s      p      d    tot
  1  0.040  0.095  0.018  0.153
  2  0.029  0.117  0.082  0.228
  3  0.029  0.117  0.082  0.228
tot  0.097  0.329  0.182  0.608
 
band  16 # energy   15.99724463 # occ.  0.00000000
 
ion      s      p      d    tot
  1  0.021  0.114  0.008  0.144
  2  0.019  0.116  0.093  0.229
  3  0.019  0.116  0.093  0.229
tot  0.060  0.346  0.194  0.601
 
band  17 # energy   18.16568509 # occ.  0.00000000
 
ion      s      p      d    tot
  1  0.033  0.016  0.060  0.110
  2  0.009  0.121  0.113  0.243
  3  0.009  0.121  0.113  0.243
tot  0.052  0.258  0.287  0.596
 
band  18 # energy   19.13898620 # occ.  0.00000000
 