<?xml version="1.0" encoding="ISO-8859-1"?>
<modeling>
 <generator>
  <i name="program" type="string">vasp </i>
  <i name="version" type="string">5.3.5  </i>
  <i name="subversion" type="string">31Mar14 (build Apr 24 2016 17:13:53) complex                          parallel </i>
  <i name="platform" type="string">LinuxIFC </i>
  <i name="date" type="string">2017 12 18 </i>
  <i name="time" type="string">17:20:42 </i>
 </generator>
 <incar>
  <i type="string" name="SYSTEM">AuAl2</i>
  <i type="string" name="PREC">normal</i>
  <i type="int" name="NBANDS">    30</i>
  <v name="RWIGS">      1.50300000      1.40200000</v>
  <i type="int" name="ISMEAR">     0</i>
  <i name="SIGMA">      0.20000000</i>
  <i type="logical" name="LOPTICS"> T  </i>
 </incar>
 <kpoints>
  <generation param="Monkhorst-Pack">
   <v type="int" name="divisions">      10       10       10 </v>
   <v name="usershift">      0.00000000       0.00000000       0.00000000 </v>
   <v name="genvec1">      0.10000000       0.00000000       0.00000000 </v>
   <v name="genvec2">      0.00000000       0.10000000       0.00000000 </v>
   <v name="genvec3">      0.00000000       0.00000000       0.10000000 </v>
   <v name="shift">      0.50000000       0.50000000       0.50000000 </v>
  </generation>
  <varray name="kpointlist" >
   <v>       0.05000000       0.05000000       0.05000000 </v>
   <v>       0.15000000       0.05000000       0.05000000 </v>
   <v>       0.25000000       0.05000000       0.05000000 </v>
   <v>       0.35000000       0.05000000       0.05000000 </v>
   <v>       0.45000000       0.05000000       0.05000000 </v>
   <v>      -0.45000000       0.05000000       0.05000000 </v>
   <v>      -0.35000000       0.05000000       0.05000000 </v>
   <v>      -0.25000000       0.05000000       0.05000000 </v>
   <v>      -0.15000000       0.05000000       0.05000000 </v>
   <v>      -0.05000000       0.05000000       0.05000000 </v>
   <v>       0.15000000       0.15000000       0.05000000 </v>
   <v>       0.25000000       0.15000000       0.05000000 </v>
   <v>       0.35000000       0.15000000       0.05000000 </v>
   <v>       0.45000000       0.15000000       0.05000000 </v>
   <v>      -0.45000000       0.15000000       0.05000000 </v>
   <v>      -0.35000000       0.15000000       0.05000000 </v>
   <v>      -0.25000000       0.15000000       0.05000000 </v>
   <v>      -0.15000000       0.15000000       0.05000000 </v>
   <v>      -0.05000000       0.15000000       0.05000000 </v>
   <v>       0.25000000       0.25000000       0.05000000 </v>
   <v>       0.35000000       0.25000000       0.05000000 </v>
   <v>       0.45000000       0.25000000       0.05000000 </v>
   <v>      -0.45000000       0.25000000       0.05000000 </v>
   <v>      -0.35000000       0.25000000       0.05000000 </v>
   <v>      -0.25000000       0.25000000       0.05000000 </v>
   <v>      -0.15000000       0.25000000       0.05000000 </v>
   <v>      -0.05000000       0.25000000       0.05000000 </v>
   <v>       0.35000000       0.35000000       0.05000000 </v>
   <v>       0.45000000       0.35000000       0.05000000 </v>
   <v>      -0.45000000       0.35000000       0.05000000 </v>
   <v>      -0.35000000       0.35000000       0.05000000 </v>
   <v>      -0.25000000       0.35000000       0.05000000 </v>
   <v>      -0.15000000       0.35000000       0.05000000 </v>
   <v>      -0.05000000       0.35000000       0.05000000 </v>
   <v>       0.45000000       0.45000000       0.05000000 </v>
   <v>      -0.45000000       0.45000000       0.05000000 </v>
   <v>      -0.35000000       0.45000000       0.05000000 </v>
   <v>      -0.25000000       0.45000000       0.05000000 </v>
   <v>      -0.15000000       0.45000000       0.05000000 </v>
   <v>      -0.05000000       0.45000000       0.05000000 </v>
   <v>      -0.45000000      -0.45000000       0.05000000 </v>
   <v>      -0.35000000      -0.45000000       0.05000000 </v>
   <v>      -0.25000000      -0.45000000       0.05000000 </v>
   <v>      -0.15000000      -0.45000000       0.05000000 </v>
   <v>      -0.35000000      -0.35000000       0.05000000 </v>
   <v>      -0.25000000      -0.35000000       0.05000000 </v>
   <v>      -0.15000000      -0.35000000       0.05000000 </v>
   <v>      -0.25000000      -0.25000000       0.05000000 </v>
   <v>      -0.15000000      -0.25000000       0.05000000 </v>
   <v>      -0.15000000      -0.15000000       0.05000000 </v>
   <v>       0.15000000       0.15000000       0.15000000 </v>
   <v>       0.25000000       0.15000000       0.15000000 </v>
   <v>       0.35000000       0.15000000       0.15000000 </v>
   <v>       0.45000000       0.15000000       0.15000000 </v>
   <v>      -0.45000000       0.15000000       0.15000000 </v>
   <v>      -0.35000000       0.15000000       0.15000000 </v>
   <v>      -0.25000000       0.15000000       0.15000000 </v>
   <v>      -0.15000000       0.15000000       0.15000000 </v>
   <v>       0.25000000       0.25000000       0.15000000 </v>
   <v>       0.35000000       0.25000000       0.15000000 </v>
   <v>       0.45000000       0.25000000       0.15000000 </v>
   <v>      -0.45000000       0.25000000       0.15000000 </v>
   <v>      -0.35000000       0.25000000       0.15000000 </v>
   <v>      -0.25000000       0.25000000       0.15000000 </v>
   <v>      -0.15000000       0.25000000       0.15000000 </v>
   <v>       0.35000000       0.35000000       0.15000000 </v>
   <v>       0.45000000       0.35000000       0.15000000 </v>
   <v>      -0.45000000       0.35000000       0.15000000 </v>
   <v>      -0.35000000       0.35000000       0.15000000 </v>
   <v>      -0.25000000       0.35000000       0.15000000 </v>
   <v>      -0.15000000       0.35000000       0.15000000 </v>
   <v>       0.45000000       0.45000000       0.15000000 </v>
   <v>      -0.45000000       0.45000000       0.15000000 </v>
   <v>      -0.35000000       0.45000000       0.15000000 </v>
   <v>      -0.25000000       0.45000000       0.15000000 </v>
   <v>      -0.15000000       0.45000000       0.15000000 </v>
   <v>      -0.45000000      -0.45000000       0.15000000 </v>
   <v>      -0.35000000      -0.45000000       0.15000000 </v>
   <v>      -0.25000000      -0.45000000       0.15000000 </v>
   <v>      -0.35000000      -0.35000000       0.15000000 </v>
   <v>      -0.25000000      -0.35000000       0.15000000 </v>
   <v>      -0.25000000      -0.25000000       0.15000000 </v>
   <v>       0.25000000       0.25000000       0.25000000 </v>
   <v>       0.35000000       0.25000000       0.25000000 </v>
   <v>       0.45000000       0.25000000       0.25000000 </v>
   <v>      -0.45000000       0.25000000       0.25000000 </v>
   <v>      -0.35000000       0.25000000       0.25000000 </v>
   <v>      -0.25000000       0.25000000       0.25000000 </v>
   <v>       0.35000000       0.35000000       0.25000000 </v>
   <v>       0.45000000       0.35000000       0.25000000 </v>
   <v>      -0.45000000       0.35000000       0.25000000 </v>
   <v>      -0.35000000       0.35000000       0.25000000 </v>
   <v>      -0.25000000       0.35000000       0.25000000 </v>
   <v>       0.45000000       0.45000000       0.25000000 </v>
   <v>      -0.45000000       0.45000000       0.25000000 </v>
   <v>      -0.35000000       0.45000000       0.25000000 </v>
   <v>      -0.25000000       0.45000000       0.25000000 </v>
   <v>      -0.45000000      -0.45000000       0.25000000 </v>
   <v>      -0.35000000      -0.45000000       0.25000000 </v>
   <v>      -0.35000000      -0.35000000       0.25000000 </v>
   <v>       0.35000000       0.35000000       0.35000000 </v>
   <v>       0.45000000       0.35000000       0.35000000 </v>
   <v>      -0.45000000       0.35000000       0.35000000 </v>
   <v>      -0.35000000       0.35000000       0.35000000 </v>
   <v>       0.45000000       0.45000000       0.35000000 </v>
   <v>      -0.45000000       0.45000000       0.35000000 </v>
   <v>      -0.35000000       0.45000000       0.35000000 </v>
   <v>      -0.45000000      -0.45000000       0.35000000 </v>
   <v>       0.45000000       0.45000000       0.45000000 </v>
   <v>      -0.45000000       0.45000000       0.45000000 </v>
  </varray>
  <varray name="weights" >
   <v>       0.00200000 </v>
   <v>       0.00600000 </v>
   <v>       0.00600000 </v>
   <v>       0.00600000 </v>
   <v>       0.00600000 </v>
   <v>       0.00600000 </v>
   <v>       0.00600000 </v>
   <v>       0.00600000 </v>
   <v>       0.00600000 </v>
   <v>       0.00600000 </v>
   <v>       0.00600000 </v>
   <v>       0.01200000 </v>
   <v>       0.01200000 </v>
   <v>       0.01200000 </v>
   <v>       0.01200000 </v>
   <v>       0.01200000 </v>
   <v>       0.01200000 </v>
   <v>       0.01200000 </v>
   <v>       0.01200000 </v>
   <v>       0.00600000 </v>
   <v>       0.01200000 </v>
   <v>       0.01200000 </v>
   <v>       0.01200000 </v>
   <v>       0.01200000 </v>
   <v>       0.01200000 </v>
   <v>       0.01200000 </v>
   <v>       0.01200000 </v>
   <v>       0.00600000 </v>
   <v>       0.01200000 </v>
   <v>       0.01200000 </v>
   <v>       0.01200000 </v>
   <v>       0.01200000 </v>
   <v>       0.01200000 </v>
   <v>       0.01200000 </v>
   <v>       0.00600000 </v>
   <v>       0.01200000 </v>
   <v>       0.01200000 </v>
   <v>       0.01200000 </v>
   <v>       0.01200000 </v>
   <v>       0.01200000 </v>
   <v>       0.00600000 </v>
   <v>       0.01200000 </v>
   <v>       0.01200000 </v>
   <v>       0.01200000 </v>
   <v>       0.00600000 </v>
   <v>       0.01200000 </v>
   <v>       0.01200000 </v>
   <v>       0.00600000 </v>
   <v>       0.01200000 </v>
   <v>       0.00600000 </v>
   <v>       0.00200000 </v>
   <v>       0.00600000 </v>
   <v>       0.00600000 </v>
   <v>       0.00600000 </v>
   <v>       0.00600000 </v>
   <v>       0.00600000 </v>
   <v>       0.00600000 </v>
   <v>       0.00600000 </v>
   <v>       0.00600000 </v>
   <v>       0.01200000 </v>
   <v>       0.01200000 </v>
   <v>       0.01200000 </v>
   <v>       0.01200000 </v>
   <v>       0.01200000 </v>
   <v>       0.01200000 </v>
   <v>       0.00600000 </v>
   <v>       0.01200000 </v>
   <v>       0.01200000 </v>
   <v>       0.01200000 </v>
   <v>       0.01200000 </v>
   <v>       0.01200000 </v>
   <v>       0.00600000 </v>
   <v>       0.01200000 </v>
   <v>       0.01200000 </v>
   <v>       0.01200000 </v>
   <v>       0.01200000 </v>
   <v>       0.00600000 </v>
   <v>       0.01200000 </v>
   <v>       0.01200000 </v>
   <v>       0.00600000 </v>
   <v>       0.01200000 </v>
   <v>       0.00600000 </v>
   <v>       0.00200000 </v>
   <v>       0.00600000 </v>
   <v>       0.00600000 </v>
   <v>       0.00600000 </v>
   <v>       0.00600000 </v>
   <v>       0.00600000 </v>
   <v>       0.00600000 </v>
   <v>       0.01200000 </v>
   <v>       0.01200000 </v>
   <v>       0.01200000 </v>
   <v>       0.01200000 </v>
   <v>       0.00600000 </v>
   <v>       0.01200000 </v>
   <v>       0.01200000 </v>
   <v>       0.01200000 </v>
   <v>       0.00600000 </v>
   <v>       0.01200000 </v>
   <v>       0.00600000 </v>
   <v>       0.00200000 </v>
   <v>       0.00600000 </v>
   <v>       0.00600000 </v>
   <v>       0.00600000 </v>
   <v>       0.00600000 </v>
   <v>       0.01200000 </v>
   <v>       0.01200000 </v>
   <v>       0.00600000 </v>
   <v>       0.00200000 </v>
   <v>       0.00600000 </v>
  </varray>
 </kpoints>
 <parameters>
  <separator name="general" >
   <i type="string" name="SYSTEM">AuAl2</i>
   <i type="logical" name="LCOMPAT"> F  </i>
  </separator>
  <separator name="electronic" >
   <i type="string" name="PREC">normal</i>
   <i name="ENMAX">    240.95700000</i>
   <i name="ENAUG">    356.67000000</i>
   <i name="EDIFF">      0.00010000</i>
   <i type="int" name="IALGO">    38</i>
   <i type="int" name="IWAVPR">    10</i>
   <i type="int" name="NBANDS">    30</i>
   <i name="NELECT">     17.00000000</i>
   <i type="int" name="TURBO">     0</i>
   <i type="int" name="IRESTART">     0</i>
   <i type="int" name="NREBOOT">     0</i>
   <i type="int" name="NMIN">     0</i>
   <i name="EREF">      0.00000000</i>
   <separator name="electronic smearing" >
    <i type="int" name="ISMEAR">     0</i>
    <i name="SIGMA">      0.20000000</i>
    <i name="KSPACING">      0.50000000</i>
    <i type="logical" name="KGAMMA"> T  </i>
   </separator>
   <separator name="electronic projectors" >
    <i type="logical" name="LREAL"> F  </i>
    <v name="ROPT">      0.00000000      0.00000000</v>
    <i type="int" name="LMAXPAW">  -100</i>
    <i type="int" name="LMAXMIX">     2</i>
    <i type="logical" name="NLSPLINE"> F  </i>
   </separator>
   <separator name="electronic startup" >
    <i type="int" name="ISTART">     0</i>
    <i type="int" name="ICHARG">     2</i>
    <i type="int" name="INIWAV">     1</i>
   </separator>
   <separator name="electronic spin" >
    <i type="int" name="ISPIN">     1</i>
    <i type="logical" name="LNONCOLLINEAR"> F  </i>
    <v name="MAGMOM">      1.00000000      1.00000000      1.00000000</v>
    <i name="NUPDOWN">     -1.00000000</i>
    <i type="logical" name="LSORBIT"> F  </i>
    <v name="SAXIS">      0.00000000      0.00000000      1.00000000</v>
    <i type="logical" name="LSPIRAL"> F  </i>
    <v name="QSPIRAL">      0.00000000      0.00000000      0.00000000</v>
    <i type="logical" name="LZEROZ"> F  </i>
   </separator>
   <separator name="electronic exchange-correlation" >
    <i type="logical" name="LASPH"> F  </i>
    <i type="logical" name="LMETAGGA"> F  </i>
   </separator>
   <separator name="electronic convergence" >
    <i type="int" name="NELM">    60</i>
    <i type="int" name="NELMDL">    -5</i>
    <i type="int" name="NELMIN">     2</i>
    <i name="ENINI">    240.95700000</i>
    <separator name="electronic convergence detail" >
     <i type="logical" name="LDIAG"> T  </i>
     <i type="logical" name="LSUBROT"> F  </i>
     <i name="WEIMIN">      0.00000000</i>
     <i name="EBREAK">      0.00000083</i>
     <i name="DEPER">      0.30000000</i>
     <i type="int" name="NRMM">     4</i>
     <i name="TIME">      0.40000000</i>
    </separator>
   </separator>
   <separator name="electronic mixer" >
    <i name="AMIX">      0.40000000</i>
    <i name="BMIX">      1.00000000</i>
    <i name="AMIN">      0.10000000</i>
    <i name="AMIX_MAG">      1.60000000</i>
    <i name="BMIX_MAG">      1.00000000</i>
    <separator name="electronic mixer details" >
     <i type="int" name="IMIX">     4</i>
     <i type="int" name="MAXMIX">   -45</i>
     <i name="WC">    100.00000000</i>
     <i type="int" name="INIMIX">     1</i>
     <i type="int" name="MIXPRE">     1</i>
     <i type="int" name="MREMOVE">     5</i>
    </separator>
   </separator>
   <separator name="electronic dipolcorrection" >
    <i type="logical" name="LDIPOL"> F  </i>
    <i type="logical" name="LMONO"> F  </i>
    <i type="int" name="IDIPOL">     0</i>
    <i name="EPSILON">      1.00000000</i>
    <v name="DIPOL">   -100.00000000   -100.00000000   -100.00000000</v>
    <i name="EFIELD">      0.00000000</i>
   </separator>
  </separator>
  <separator name="grids" >
   <i type="int" name="NGX">    16</i>
   <i type="int" name="NGY">    16</i>
   <i type="int" name="NGZ">    16</i>
   <i type="int" name="NGXF">    32</i>
   <i type="int" name="NGYF">    32</i>
   <i type="int" name="NGZF">    32</i>
   <i type="logical" name="ADDGRID"> F  </i>
  </separator>
  <separator name="ionic" >
   <i type="int" name="NSW">     0</i>
   <i type="int" name="IBRION">    -1</i>
   <i type="int" name="ISIF">     2</i>
   <i name="PSTRESS">      0.00000000</i>
   <i name="EDIFFG">      0.00100000</i>
   <i type="int" name="NFREE">     0</i>
   <i name="POTIM">      0.50000000</i>
   <i name="SMASS">     -3.00000000</i>
   <i name="SCALEE">      1.00000000</i>
  </separator>
  <separator name="ionic md" >
   <i name="TEBEG">      0.00010000</i>
   <i name="TEEND">      0.00010000</i>
   <i type="int" name="NBLOCK">     1</i>
   <i type="int" name="KBLOCK">     1</i>
   <i type="int" name="NPACO">   256</i>
   <i name="APACO">     16.00000000</i>
  </separator>
  <separator name="symmetry" >
   <i type="int" name="ISYM">     2</i>
   <i name="SYMPREC">      0.00001000</i>
  </separator>
  <separator name="dos" >
   <i type="logical" name="LORBIT"> F  </i>
   <v name="RWIGS">      1.50300000      1.40200000</v>
   <i type="int" name="NEDOS">   301</i>
   <i name="EMIN">     10.00000000</i>
   <i name="EMAX">    -10.00000000</i>
   <i name="EFERMI">      0.00000000</i>
  </separator>
  <separator name="writing" >
   <i type="int" name="NWRITE">     2</i>
   <i type="logical" name="LWAVE"> T  </i>
   <i type="logical" name="LCHARG"> T  </i>
   <i type="logical" name="LPARD"> F  </i>
   <i type="logical" name="LVTOT"> F  </i>
   <i type="logical" name="LVHAR"> F  </i>
   <i type="logical" name="LELF"> F  </i>
   <i type="logical" name="LOPTICS"> T  </i>
   <v name="STM">      0.00000000      0.00000000      0.00000000      0.00000000      0.00000000      0.00000000      0.00000000</v>
  </separator>
  <separator name="performance" >
   <i type="int" name="NPAR">     1</i>
   <i type="int" name="NSIM">     4</i>
   <i type="int" name="NBLK">    -1</i>
   <i type="logical" name="LPLANE"> T  </i>
   <i type="logical" name="LSCALAPACK"> T  </i>
   <i type="logical" name="LSCAAWARE"> F  </i>
   <i type="logical" name="LSCALU"> F  </i>
   <i type="logical" name="LASYNC"> F  </i>
   <i type="logical" name="LORBITALREAL"> F  </i>
  </separator>
  <separator name="miscellaneous" >
   <i type="int" name="IDIOT">     3</i>
   <i type="logical" name="LMUSIC"> F  </i>
   <v name="POMASS">    196.96600000     26.98200000</v>
   <v name="DARWINR">      0.00000000      0.00000000</v>
   <v name="DARWINV">      1.00000000      1.00000000</v>
   <i type="logical" name="LCORR"> T  </i>
  </separator>
  <i type="logical" name="GGA_COMPAT"> T  </i>
  <i type="logical" name="LBERRY"> F  </i>
  <i type="int" name="ICORELEVEL">     0</i>
  <i type="logical" name="LDAU"> F  </i>
  <i type="int" name="I_CONSTRAINED_M">     0</i>
  <separator name="electronic exchange-correlation" >
   <i type="string" name="GGA">--</i>
   <i type="int" name="VOSKOWN">     0</i>
   <i type="logical" name="LHFCALC"> F  </i>
   <i type="string" name="PRECFOCK"></i>
   <i type="logical" name="LSYMGRAD"> F  </i>
   <i type="logical" name="LHFONE"> F  </i>
   <i type="logical" name="LRHFCALC"> F  </i>
   <i type="logical" name="LTHOMAS"> F  </i>
   <i type="logical" name="LMODELHF"> F  </i>
   <i name="ENCUT4O">     -1.00000000</i>
   <i type="int" name="EXXOEP">     0</i>
   <i type="int" name="FOURORBIT">     0</i>
   <i name="AEXX">      0.00000000</i>
   <i name="HFALPHA">      0.00000000</i>
   <i name="MCALPHA">      0.00000000</i>
   <i name="ALDAX">      1.00000000</i>
   <i name="AGGAX">      1.00000000</i>
   <i name="ALDAC">      1.00000000</i>
   <i name="AGGAC">      1.00000000</i>
   <i type="int" name="NKREDX">     1</i>
   <i type="int" name="NKREDY">     1</i>
   <i type="int" name="NKREDZ">     1</i>
   <i type="logical" name="SHIFTRED"> F  </i>
   <i type="logical" name="ODDONLY"> F  </i>
   <i type="logical" name="EVENONLY"> F  </i>
   <i type="int" name="LMAXFOCK">     0</i>
   <i type="int" name="NMAXFOCKAE">     0</i>
   <i type="logical" name="LFOCKAEDFT"> F  </i>
   <i name="HFSCREEN">      0.00000000</i>
   <i name="HFSCREENC">      0.00000000</i>
   <i type="int" name="NBANDSGWLOW">     0</i>
  </separator>
  <separator name="vdW DFT" >
   <i type="logical" name="LUSE_VDW"> F  </i>
   <i name="Zab_VDW">     -0.84910000</i>
   <i name="PARAM1">      0.12340000</i>
   <i name="PARAM2">      1.00000000</i>
   <i name="PARAM3">      0.00000000</i>
  </separator>
  <separator name="model GW" >
   <i type="int" name="MODEL_GW">     0</i>
   <i name="MODEL_EPS0">     10.58852959</i>
   <i name="MODEL_ALPHA">      1.00000000</i>
  </separator>
  <separator name="linear response parameters" >
   <i type="logical" name="LEPSILON"> F  </i>
   <i type="logical" name="LRPA"> F  </i>
   <i type="logical" name="LNABLA"> F  </i>
   <i type="logical" name="LVEL"> F  </i>
   <i type="int" name="KINTER">     0</i>
   <i name="CSHIFT">      0.10000000</i>
   <i name="OMEGAMAX">     -1.00000000</i>
   <i name="DEG_THRESHOLD">      0.00200000</i>
  </separator>
  <separator name="orbital magnetization" >
   <i type="logical" name="NUCIND"> F  </i>
   <v name="MAGPOS">      0.00000000      0.00000000      0.00000000</v>
   <i type="logical" name="LNICSALL"> T  </i>
   <i type="logical" name="ORBITALMAG"> F  </i>
   <i type="logical" name="LMAGBLOCH"> F  </i>
   <i type="logical" name="LCHIMAG"> F  </i>
   <i type="logical" name="LGAUGE"> T  </i>
   <i type="int" name="MAGATOM">     0</i>
   <v name="MAGDIPOL">      0.00000000      0.00000000      0.00000000</v>
   <v name="AVECCONST">      0.00000000      0.00000000      0.00000000</v>
  </separator>
  <separator name="response functions" >
   <i type="logical" name="LADDER"> F  </i>
   <i type="logical" name="LFXC"> F  </i>
   <i type="logical" name="LHARTREE"> T  </i>
   <i type="int" name="IBSE">     0</i>
   <i type="logical" name="LTCTE"> F  </i>
   <i type="logical" name="LTETE"> F  </i>
   <i type="logical" name="LTRIPLET"> F  </i>
   <i type="logical" name="LFXCEPS"> F  </i>
   <i type="logical" name="LFXHEG"> F  </i>
   <i type="logical" name="L2ORDER"> F  </i>
   <i type="logical" name="LUSEW"> F  </i>
   <i name="ENCUTGW">     -2.00000000</i>
   <i name="ENCUTGWSOFT">     -2.00000000</i>
   <i name="ENCUTLF">     -1.00000000</i>
   <i type="int" name="LMAXMP2">    -1</i>
   <i name="SCISSOR">      0.00000000</i>
   <i type="int" name="NOMEGA">     0</i>
   <i type="int" name="NOMEGAR">     0</i>
   <i type="int" name="NBANDSGW">    -1</i>
   <i type="int" name="NBANDSO">    -1</i>
   <i type="int" name="NBANDSV">    -1</i>
   <i type="int" name="NELM">     1</i>
   <i type="int" name="DIM">     3</i>
   <i type="int" name="ANTIRES">     0</i>
   <i name="OMEGAMAX">    -30.00000000</i>
   <i name="OMEGAMIN">    -30.00000000</i>
   <i name="OMEGATL">   -200.00000000</i>
   <i type="int" name="OMEGAGRID">     0</i>
   <i name="CSHIFT">     -0.10000000</i>
   <i type="logical" name="SELFENERGY"> F  </i>
   <i type="logical" name="LSPECTRAL"> F  </i>
   <i type="logical" name="ODDONLYGW"> F  </i>
   <i type="logical" name="EVENONLYGW"> F  </i>
   <i type="int" name="NKREDLFX">     1</i>
   <i type="int" name="NKREDLFY">     1</i>
   <i type="int" name="NKREDLFZ">     1</i>
   <i type="int" name="MAXMEM">  1800</i>
   <i type="int" name="TELESCOPE">     0</i>
   <i type="int" name="TAUPAR">     1</i>
  </separator>
  <separator name="External order field" >
   <i name="OFIELD_KAPPA">      0.00000000</i>
   <v name="OFIELD_K">      0.00000000      0.00000000      0.00000000</v>
   <i name="OFIELD_Q6_NEAR">      0.00000000</i>
   <i name="OFIELD_Q6_FAR">      0.00000000</i>
   <i name="OFIELD_A">      0.00000000</i>
  </separator>
 </parameters>
 <atominfo>
  <atoms>       3 </atoms>
  <types>       2 </types>
  <array name="atoms" >
   <dimension dim="1">ion</dimension>
   <field type="string">element</field>
   <field type="int">atomtype</field>
   <set>
    <rc><c>Au</c><c>   1</c></rc>
    <rc><c>Al</c><c>   2</c></rc>
    <rc><c>Al</c><c>   2</c></rc>
   </set>
  </array>
  <array name="atomtypes" >
   <dimension dim="1">type</dimension>
   <field type="int">atomspertype</field>
   <field type="string">element</field>
   <field>mass</field>
   <field>valence</field>
   <field type="string">pseudopotential</field>
   <set>
    <rc><c>   1</c><c>Au</c><c>    196.96600000</c><c>     11.00000000</c><c> PAW Au 04Feb1998                       </c></rc>
    <rc><c>   2</c><c>Al</c><c>     26.98200000</c><c>      3.00000000</c><c> PAW Al 17Apr2000                       </c></rc>
   </set>
  </array>
 </atominfo>
 <structure name="initialpos" >
  <crystal>
   <varray name="basis" >
    <v>       0.00000000       2.98029020       2.98029020 </v>
    <v>       2.98029020       0.00000000       2.98029020 </v>
    <v>       2.98029020       2.98029020       0.00000000 </v>
   </varray>
   <i name="volume">     52.94264795 </i>
   <varray name="rec_basis" >
    <v>      -0.16776890       0.16776890       0.16776890 </v>
    <v>       0.16776890      -0.16776890       0.16776890 </v>
    <v>       0.16776890       0.16776890      -0.16776890 </v>
   </varray>
  </crystal>
  <varray name="positions" >
   <v>       0.00000000       0.00000000       0.00000000 </v>
   <v>       0.25000000       0.25000000       0.25000000 </v>
   <v>       0.75000000       0.75000000       0.75000000 </v>
  </varray>
 </structure>
 <calculation>
  <scstep>
   <time name="dav">    3.97    4.00</time>
   <time name="total">    4.01    4.05</time>
   <energy>
    <i name="alphaZ">     52.91977773 </i>
    <i name="ewald">   -921.35963664 </i>
    <i name="hartreedc">   -267.47146778 </i>
    <i name="XCdc">    -34.19145116 </i>
    <i name="pawpsdc">    816.04175667 </i>
    <i name="pawaedc">   -733.29636931 </i>
    <i name="eentropy">     -0.02642808 </i>
    <i name="bandstr">    101.56425406 </i>
    <i name="atom">   1036.98594466 </i>
    <i name="e_fr_energy">     51.16638015 </i>
    <i name="e_wo_entrp">     51.19280823 </i>
    <i name="e_0_energy">     51.17959419 </i>
   </energy>
  </scstep>
  <scstep>
   <time name="dav">    4.30    4.35</time>
   <time name="total">    4.34    4.39</time>
   <energy>
    <i name="e_fr_energy">    -13.91955785 </i>
    <i name="e_wo_entrp">    -13.89897745 </i>
    <i name="e_0_energy">    -13.90926765 </i>
   </energy>
  </scstep>
  <scstep>
   <time name="dav">    4.35    4.45</time>
   <time name="total">    4.38    4.49</time>
   <energy>
    <i name="e_fr_energy">    -15.60662864 </i>
    <i name="e_wo_entrp">    -15.58559421 </i>
    <i name="e_0_energy">    -15.59611142 </i>
   </energy>
  </scstep>
  <scstep>
   <time name="dav">    4.02    4.06</time>
   <time name="total">    4.06    4.11</time>
   <energy>
    <i name="e_fr_energy">    -15.61381750 </i>
    <i name="e_wo_entrp">    -15.59277992 </i>
    <i name="e_0_energy">    -15.60329871 </i>
   </energy>
  </scstep>
  <scstep>
   <time name="dav">    4.33    4.37</time>
   <time name="total">    4.48    4.52</time>
   <energy>
    <i name="e_fr_energy">    -15.61388637 </i>
    <i name="e_wo_entrp">    -15.59284877 </i>
    <i name="e_0_energy">    -15.60336757 </i>
   </energy>
  </scstep>
  <scstep>
   <time name="dav">    4.37    4.42</time>
   <time name="total">    4.53    4.59</time>
   <energy>
    <i name="e_fr_energy">    -14.40063686 </i>
    <i name="e_wo_entrp">    -14.38069929 </i>
    <i name="e_0_energy">    -14.39066808 </i>
   </energy>
  </scstep>
  <scstep>
   <time name="dav">    4.06    4.10</time>
   <time name="total">    4.22    4.26</time>
   <energy>
    <i name="e_fr_energy">    -14.30038802 </i>
    <i name="e_wo_entrp">    -14.28029263 </i>
    <i name="e_0_energy">    -14.29034032 </i>
   </energy>
  </scstep>
  <scstep>
   <time name="dav">    4.01    4.05</time>
   <time name="total">    4.17    4.22</time>
   <energy>
    <i name="e_fr_energy">    -14.25700440 </i>
    <i name="e_wo_entrp">    -14.23690048 </i>
    <i name="e_0_energy">    -14.24695244 </i>
   </energy>
  </scstep>
  <scstep>
   <time name="dav">    4.04    4.09</time>
   <time name="total">    4.24    4.30</time>
   <energy>
    <i name="e_fr_energy">    -14.25649178 </i>
    <i name="e_wo_entrp">    -14.23640418 </i>
    <i name="e_0_energy">    -14.24644798 </i>
   </energy>
  </scstep>
  <scstep>
   <time name="dav">    3.97    4.01</time>
   <time name="total">    4.02    4.06</time>
   <energy>
    <i name="alphaZ">     52.91977773 </i>
    <i name="ewald">   -921.35963664 </i>
    <i name="hartreedc">   -245.40437005 </i>
    <i name="XCdc">    -34.75746190 </i>
    <i name="pawpsdc">    857.00580310 </i>
    <i name="pawaedc">   -780.41576520 </i>
    <i name="eentropy">     -0.02007998 </i>
    <i name="bandstr">     20.78927917 </i>
    <i name="atom">   1036.98594466 </i>
    <i name="e_fr_energy">    -14.25650912 </i>
    <i name="e_wo_entrp">    -14.23642914 </i>
    <i name="e_0_energy">    -14.24646913 </i>
   </energy>
  </scstep>
  <structure>
   <crystal>
    <varray name="basis" >
     <v>       0.00000000       2.98029020       2.98029020 </v>
     <v>       2.98029020       0.00000000       2.98029020 </v>
     <v>       2.98029020       2.98029020       0.00000000 </v>
    </varray>
    <i name="volume">     52.94264795 </i>
    <varray name="rec_basis" >
     <v>      -0.16776890       0.16776890       0.16776890 </v>
     <v>       0.16776890      -0.16776890       0.16776890 </v>
     <v>       0.16776890       0.16776890      -0.16776890 </v>
    </varray>
   </crystal>
   <varray name="positions" >
    <v>       0.00000000       0.00000000       0.00000000 </v>
    <v>       0.25000000       0.25000000       0.25000000 </v>
    <v>       0.75000000       0.75000000       0.75000000 </v>
   </varray>
  </structure>
  <varray name="forces" >
   <v>      -0.00000000       0.00000000      -0.00000000 </v>
   <v>      -0.00000000      -0.00000000      -0.00000000 </v>
   <v>       0.00000000       0.00000000       0.00000000 </v>
  </varray>
  <varray name="stress" >
   <v>      -0.80193960       0.00000000      -0.00000000 </v>
   <v>       0.00000000      -0.80193960       0.00000000 </v>
   <v>      -0.00000000       0.00000000      -0.80193960 </v>
  </varray>
  <energy>
   <i name="e_fr_energy">    -14.25650912 </i>
   <i name="e_wo_entrp">    -14.24646913 </i>
   <i name="e_0_energy">     -0.02007998 </i>
  </energy>
  <time name="totalsc">   44.26   45.10</time>
  <eigenvalues>
   <array>
    <dimension dim="1">band</dimension>
    <dimension dim="2">kpoint</dimension>
    <dimension dim="3">spin</dimension>
    <field>eigene</field>
    <field>occ</field>
    <set>
     <set comment="spin 1">
      <set comment="kpoint 1">
       <r>   -4.0356    1.0000 </r>
       <r>   -0.1211    1.0000 </r>
       <r>   -0.1016    1.0000 </r>
       <r>   -0.1016    1.0000 </r>
       <r>    0.8774    1.0000 </r>
       <r>    0.8774    1.0000 </r>
       <r>    8.7274    0.0000 </r>
       <r>    9.1505    0.0000 </r>
       <r>    9.4334    0.0000 </r>
       <r>    9.4334    0.0000 </r>
       <r>   10.8101    0.0000 </r>
       <r>   10.8101    0.0000 </r>
       <r>   11.1677    0.0000 </r>
       <r>   12.3405    0.0000 </r>
       <r>   12.3405    0.0000 </r>
       <r>   12.3686    0.0000 </r>
       <r>   13.5578    0.0000 </r>
       <r>   15.1911    0.0000 </r>
       <r>   15.1911    0.0000 </r>
       <r>   18.1611    0.0000 </r>
       <r>   26.5128    0.0000 </r>
       <r>   26.5128    0.0000 </r>
       <r>   26.6262    0.0000 </r>
       <r>   28.3739    0.0000 </r>
       <r>   28.5655    0.0000 </r>
       <r>   28.5655    0.0000 </r>
       <r>   30.7235    0.0000 </r>
       <r>   30.7235    0.0000 </r>
       <r>   31.0857    0.0000 </r>
       <r>   31.8462    0.0000 </r>
      </set>
      <set comment="kpoint 2">
       <r>   -3.8587    1.0000 </r>
       <r>   -0.1801    1.0000 </r>
       <r>   -0.0599    1.0000 </r>
       <r>   -0.0512    1.0000 </r>
       <r>    0.8488    1.0000 </r>
       <r>    0.8887    1.0000 </r>
       <r>    7.3856    0.0000 </r>
       <r>    8.1442    0.0000 </r>
       <r>    9.3781    0.0000 </r>
       <r>    9.3786    0.0000 </r>
       <r>   10.8192    0.0000 </r>
       <r>   11.5062    0.0000 </r>
       <r>   11.8169    0.0000 </r>
       <r>   11.8438    0.0000 </r>
       <r>   12.3389    0.0000 </r>
       <r>   12.5840    0.0000 </r>
       <r>   14.7596    0.0000 </r>
       <r>   15.5012    0.0000 </r>
       <r>   16.2381    0.0000 </r>
       <r>   18.8532    0.0000 </r>
       <r>   24.7978    0.0000 </r>
       <r>   25.6296    0.0000 </r>
       <r>   25.7209    0.0000 </r>
       <r>   28.0178    0.0000 </r>
       <r>   28.6778    0.0000 </r>
       <r>   29.6806    0.0000 </r>
       <r>   30.1392    0.0000 </r>
       <r>   30.7549    0.0000 </r>
       <r>   30.8217    0.0000 </r>
       <r>   31.3098    0.0000 </r>
      </set>
      <set comment="kpoint 3">
       <r>   -3.4316    1.0000 </r>
       <r>   -0.2821    1.0000 </r>
       <r>    0.0280    1.0000 </r>
       <r>    0.0336    1.0000 </r>
       <r>    0.8311    1.0000 </r>
       <r>    0.9038    1.0000 </r>
       <r>    5.2591    1.0000 </r>
       <r>    7.5366    0.0000 </r>
       <r>    8.5807    0.0000 </r>
       <r>    9.6148    0.0000 </r>
       <r>   10.9080    0.0000 </r>
       <r>   11.0120    0.0000 </r>
       <r>   12.0677    0.0000 </r>
       <r>   12.2648    0.0000 </r>
       <r>   12.4113    0.0000 </r>
       <r>   13.6125    0.0000 </r>
       <r>   16.5910    0.0000 </r>
       <r>   17.2827    0.0000 </r>
       <r>   17.6669    0.0000 </r>
       <r>   20.1917    0.0000 </r>
       <r>   22.8090    0.0000 </r>
       <r>   23.8435    0.0000 </r>
       <r>   23.9104    0.0000 </r>
       <r>   28.0142    0.0000 </r>
       <r>   28.8667    0.0000 </r>
       <r>   28.9815    0.0000 </r>
       <r>   29.6912    0.0000 </r>
       <r>   29.9002    0.0000 </r>
       <r>   31.0469    0.0000 </r>
       <r>   31.0821    0.0000 </r>
      </set>
      <set comment="kpoint 4">
       <r>   -2.8134    1.0000 </r>
       <r>   -0.3383    1.0000 </r>
       <r>    0.1056    1.0000 </r>
       <r>    0.1087    1.0000 </r>
       <r>    0.8655    1.0000 </r>
       <r>    0.9489    1.0000 </r>
       <r>    3.3449    1.0000 </r>
       <r>    7.0327    0.0048 </r>
       <r>    7.7786    0.0000 </r>
       <r>    9.7892    0.0000 </r>
       <r>   10.5309    0.0000 </r>
       <r>   10.6723    0.0000 </r>
       <r>   11.5481    0.0000 </r>
       <r>   13.4635    0.0000 </r>
       <r>   13.5111    0.0000 </r>
       <r>   14.8507    0.0000 </r>
       <r>   17.9278    0.0000 </r>
       <r>   19.1700    0.0000 </r>
       <r>   19.9249    0.0000 </r>
       <r>   20.6936    0.0000 </r>
       <r>   21.4109    0.0000 </r>
       <r>   22.0574    0.0000 </r>
       <r>   23.1675    0.0000 </r>
       <r>   26.5291    0.0000 </r>
       <r>   27.3439    0.0000 </r>
       <r>   28.5092    0.0000 </r>
       <r>   29.5584    0.0000 </r>
       <r>   30.1079    0.0000 </r>
       <r>   30.6683    0.0000 </r>
       <r>   31.8531    0.0000 </r>
      </set>
      <set comment="kpoint 5">
       <r>   -2.1965    1.0000 </r>
       <r>   -0.1974    1.0000 </r>
       <r>    0.1457    1.0000 </r>
       <r>    0.1483    1.0000 </r>
       <r>    0.9471    1.0000 </r>
       <r>    1.0006    1.0000 </r>
       <r>    1.7743    1.0000 </r>
       <r>    6.7437    0.2927 </r>
       <r>    7.1777    0.0002 </r>
       <r>    9.7799    0.0000 </r>
       <r>   10.3992    0.0000 </r>
       <r>   10.5704    0.0000 </r>
       <r>   11.1318    0.0000 </r>
       <r>   14.7709    0.0000 </r>
       <r>   14.8691    0.0000 </r>
       <r>   15.9972    0.0000 </r>
       <r>   18.1657    0.0000 </r>
       <r>   19.1390    0.0000 </r>
       <r>   19.5113    0.0000 </r>
       <r>   20.9960    0.0000 </r>
       <r>   21.6805    0.0000 </r>
       <r>   23.1310    0.0000 </r>
       <r>   24.4628    0.0000 </r>
       <r>   25.0066    0.0000 </r>
       <r>   25.2876    0.0000 </r>
       <r>   28.4313    0.0000 </r>
       <r>   29.0088    0.0000 </r>
       <r>   29.7690    0.0000 </r>
       <r>   29.9339    0.0000 </r>
       <r>   30.0617    0.0000 </r>
      </set>
      <set comment="kpoint 6">
       <r>   -1.9899    1.0000 </r>
       <r>   -0.0148    1.0000 </r>
       <r>    0.1509    1.0000 </r>
       <r>    0.2002    1.0000 </r>
       <r>    1.0029    1.0000 </r>
       <r>    1.0200    1.0000 </r>
       <r>    1.1104    1.0000 </r>
       <r>    6.7747    0.2221 </r>
       <r>    6.8997    0.0496 </r>
       <r>    9.6894    0.0000 </r>
       <r>   10.5127    0.0000 </r>
       <r>   10.6255    0.0000 </r>
       <r>   10.8920    0.0000 </r>
       <r>   15.2196    0.0000 </r>
       <r>   15.6561    0.0000 </r>
       <r>   16.4953    0.0000 </r>
       <r>   17.6153    0.0000 </r>
       <r>   18.6341    0.0000 </r>
       <r>   18.9755    0.0000 </r>
       <r>   21.8724    0.0000 </r>
       <r>   22.0681    0.0000 </r>
       <r>   23.5940    0.0000 </r>
       <r>   24.0495    0.0000 </r>
       <r>   24.6200    0.0000 </r>
       <r>   26.5744    0.0000 </r>
       <r>   27.0407    0.0000 </r>
       <r>   28.4527    0.0000 </r>
       <r>   29.4717    0.0000 </r>
       <r>   29.7395    0.0000 </r>
       <r>   29.8174    0.0000 </r>
      </set>
      <set comment="kpoint 7">
       <r>   -2.3790    1.0000 </r>
       <r>   -0.2794    1.0000 </r>
       <r>    0.1360    1.0000 </r>
       <r>    0.1384    1.0000 </r>
       <r>    0.9227    1.0000 </r>
       <r>    0.9854    1.0000 </r>
       <r>    2.2431    1.0000 </r>
       <r>    6.9886    0.0114 </r>
       <r>    7.1481    0.0003 </r>
       <r>    9.6602    0.0000 </r>
       <r>   10.5668    0.0000 </r>
       <r>   10.8428    0.0000 </r>
       <r>   10.9984    0.0000 </r>
       <r>   13.9183    0.0000 </r>
       <r>   15.1433    0.0000 </r>
       <r>   15.3701    0.0000 </r>
       <r>   18.5943    0.0000 </r>
       <r>   18.8886    0.0000 </r>
       <r>   20.0577    0.0000 </r>
       <r>   20.9321    0.0000 </r>
       <r>   21.3530    0.0000 </r>
       <r>   22.2255    0.0000 </r>
       <r>   24.3477    0.0000 </r>
       <r>   25.1020    0.0000 </r>
       <r>   25.9455    0.0000 </r>
       <r>   29.0097    0.0000 </r>
       <r>   29.2152    0.0000 </r>
       <r>   29.5539    0.0000 </r>
       <r>   30.0857    0.0000 </r>
       <r>   30.5533    0.0000 </r>
      </set>
      <set comment="kpoint 8">
       <r>   -3.0329    1.0000 </r>
       <r>   -0.3345    1.0000 </r>
       <r>    0.0865    1.0000 </r>
       <r>    0.0877    1.0000 </r>
       <r>    0.8441    1.0000 </r>
       <r>    0.9328    1.0000 </r>
       <r>    3.9509    1.0000 </r>
       <r>    7.3891    0.0000 </r>
       <r>    7.7719    0.0000 </r>
       <r>    9.6450    0.0000 </r>
       <r>   10.6259    0.0000 </r>
       <r>   11.2373    0.0000 </r>
       <r>   11.4105    0.0000 </r>
       <r>   12.5985    0.0000 </r>
       <r>   13.9471    0.0000 </r>
       <r>   14.0272    0.0000 </r>
       <r>   17.6091    0.0000 </r>
       <r>   18.5408    0.0000 </r>
       <r>   19.1446    0.0000 </r>
       <r>   20.8252    0.0000 </r>
       <r>   21.9026    0.0000 </r>
       <r>   22.2817    0.0000 </r>
       <r>   23.2308    0.0000 </r>
       <r>   27.2368    0.0000 </r>
       <r>   27.9256    0.0000 </r>
       <r>   28.7119    0.0000 </r>
       <r>   29.2541    0.0000 </r>
       <r>   30.0332    0.0000 </r>
       <r>   30.9346    0.0000 </r>
       <r>   31.9427    0.0000 </r>
      </set>
      <set comment="kpoint 9">
       <r>   -3.5993    1.0000 </r>
       <r>   -0.2506    1.0000 </r>
       <r>    0.0003    1.0000 </r>
       <r>    0.0041    1.0000 </r>
       <r>    0.8265    1.0000 </r>
       <r>    0.9014    1.0000 </r>
       <r>    5.9507    1.0000 </r>
       <r>    7.9957    0.0000 </r>
       <r>    8.4509    0.0000 </r>
       <r>    9.5575    0.0000 </r>
       <r>   10.8755    0.0000 </r>
       <r>   11.5488    0.0000 </r>
       <r>   11.7757    0.0000 </r>
       <r>   12.0184    0.0000 </r>
       <r>   12.7756    0.0000 </r>
       <r>   12.9053    0.0000 </r>
       <r>   16.2226    0.0000 </r>
       <r>   16.3455    0.0000 </r>
       <r>   17.0811    0.0000 </r>
       <r>   19.7539    0.0000 </r>
       <r>   23.7315    0.0000 </r>
       <r>   23.8568    0.0000 </r>
       <r>   24.8838    0.0000 </r>
       <r>   27.9842    0.0000 </r>
       <r>   28.9930    0.0000 </r>
       <r>   29.5239    0.0000 </r>
       <r>   29.5796    0.0000 </r>
       <r>   30.3359    0.0000 </r>
       <r>   30.4034    0.0000 </r>
       <r>   31.4594    0.0000 </r>
      </set>
      <set comment="kpoint 10">
       <r>   -3.9466    1.0000 </r>
       <r>   -0.1567    1.0000 </r>
       <r>   -0.0759    1.0000 </r>
       <r>   -0.0742    1.0000 </r>
       <r>    0.8518    1.0000 </r>
       <r>    0.8925    1.0000 </r>
       <r>    8.1058    0.0000 </r>
       <r>    8.7189    0.0000 </r>
       <r>    8.8901    0.0000 </r>
       <r>    9.3697    0.0000 </r>
       <r>   10.8503    0.0000 </r>
       <r>   11.6140    0.0000 </r>
       <r>   11.6806    0.0000 </r>
       <r>   11.7895    0.0000 </r>
       <r>   12.4384    0.0000 </r>
       <r>   12.4645    0.0000 </r>
       <r>   14.1396    0.0000 </r>
       <r>   15.1748    0.0000 </r>
       <r>   15.8457    0.0000 </r>
       <r>   18.5420    0.0000 </r>
       <r>   25.6276    0.0000 </r>
       <r>   25.6813    0.0000 </r>
       <r>   26.5443    0.0000 </r>
       <r>   27.8372    0.0000 </r>
       <r>   29.0263    0.0000 </r>
       <r>   29.0565    0.0000 </r>
       <r>   29.8226    0.0000 </r>
       <r>   31.1241    0.0000 </r>
       <r>   31.3138    0.0000 </r>
       <r>   31.6680    0.0000 </r>
      </set>
      <set comment="kpoint 11">
       <r>   -3.7695    1.0000 </r>
       <r>   -0.2261    1.0000 </r>
       <r>   -0.0220    1.0000 </r>
       <r>   -0.0208    1.0000 </r>
       <r>    0.8027    1.0000 </r>
       <r>    0.9210    1.0000 </r>
       <r>    7.3837    0.0000 </r>
       <r>    7.9504    0.0000 </r>
       <r>    8.3888    0.0000 </r>
       <r>    8.9329    0.0000 </r>
       <r>   10.9306    0.0000 </r>
       <r>   11.3383    0.0000 </r>
       <r>   12.4935    0.0000 </r>
       <r>   12.5511    0.0000 </r>
       <r>   12.6963    0.0000 </r>
       <r>   12.7343    0.0000 </r>
       <r>   15.0306    0.0000 </r>
       <r>   15.1431    0.0000 </r>
       <r>   16.5316    0.0000 </r>
       <r>   19.3664    0.0000 </r>
       <r>   24.5514    0.0000 </r>
       <r>   24.5903    0.0000 </r>
       <r>   26.5019    0.0000 </r>
       <r>   27.0122    0.0000 </r>
       <r>   28.5433    0.0000 </r>
       <r>   29.4961    0.0000 </r>
       <r>   29.6606    0.0000 </r>
       <r>   29.9905    0.0000 </r>
       <r>   31.5835    0.0000 </r>
       <r>   32.2909    0.0000 </r>
      </set>
      <set comment="kpoint 12">
       <r>   -3.4229    1.0000 </r>
       <r>   -0.3253    1.0000 </r>
       <r>    0.0621    1.0000 </r>
       <r>    0.0644    1.0000 </r>
       <r>    0.7522    1.0000 </r>
       <r>    0.9544    1.0000 </r>
       <r>    5.9455    1.0000 </r>
       <r>    6.8181    0.1418 </r>
       <r>    8.0482    0.0000 </r>
       <r>    9.1574    0.0000 </r>
       <r>   10.5696    0.0000 </r>
       <r>   11.6364    0.0000 </r>
       <r>   12.0440    0.0000 </r>
       <r>   12.9876    0.0000 </r>
       <r>   13.2087    0.0000 </r>
       <r>   14.1545    0.0000 </r>
       <r>   15.5145    0.0000 </r>
       <r>   16.7670    0.0000 </r>
       <r>   17.5481    0.0000 </r>
       <r>   20.6583    0.0000 </r>
       <r>   22.7201    0.0000 </r>
       <r>   23.5010    0.0000 </r>
       <r>   25.6757    0.0000 </r>
       <r>   26.4878    0.0000 </r>
       <r>   27.8713    0.0000 </r>
       <r>   28.4256    0.0000 </r>
       <r>   29.6879    0.0000 </r>
       <r>   30.6094    0.0000 </r>
       <r>   30.8341    0.0000 </r>
       <r>   31.9032    0.0000 </r>
      </set>
      <set comment="kpoint 13">
       <r>   -2.8570    1.0000 </r>
       <r>   -0.4124    1.0000 </r>
       <r>    0.1396    1.0000 </r>
       <r>    0.1580    1.0000 </r>
       <r>    0.7661    1.0000 </r>
       <r>    0.9949    1.0000 </r>
       <r>    3.9980    1.0000 </r>
       <r>    6.3068    0.9945 </r>
       <r>    7.3094    0.0000 </r>
       <r>    9.3446    0.0000 </r>
       <r>   11.1156    0.0000 </r>
       <r>   11.5809    0.0000 </r>
       <r>   11.7082    0.0000 </r>
       <r>   12.6192    0.0000 </r>
       <r>   14.2430    0.0000 </r>
       <r>   15.4727    0.0000 </r>
       <r>   16.6883    0.0000 </r>
       <r>   18.8950    0.0000 </r>
       <r>   19.2731    0.0000 </r>
       <r>   20.9357    0.0000 </r>
       <r>   21.6307    0.0000 </r>
       <r>   22.5359    0.0000 </r>
       <r>   24.0907    0.0000 </r>
       <r>   26.2268    0.0000 </r>
       <r>   26.6721    0.0000 </r>
       <r>   28.0895    0.0000 </r>
       <r>   28.9883    0.0000 </r>
       <r>   30.0493    0.0000 </r>
       <r>   30.4985    0.0000 </r>
       <r>   30.9871    0.0000 </r>
      </set>
      <set comment="kpoint 14">
       <r>   -2.2006    1.0000 </r>
       <r>   -0.3848    1.0000 </r>
       <r>    0.1801    1.0000 </r>
       <r>    0.2137    1.0000 </r>
       <r>    0.8866    1.0000 </r>
       <r>    1.0245    1.0000 </r>
       <r>    2.3262    1.0000 </r>
       <r>    5.9794    1.0000 </r>
       <r>    6.6823    0.4557 </r>
       <r>    9.3070    0.0000 </r>
       <r>   10.9064    0.0000 </r>
       <r>   11.7399    0.0000 </r>
       <r>   12.1490    0.0000 </r>
       <r>   12.7654    0.0000 </r>
       <r>   15.4297    0.0000 </r>
       <r>   16.4952    0.0000 </r>
       <r>   17.7080    0.0000 </r>
       <r>   18.7930    0.0000 </r>
       <r>   20.3248    0.0000 </r>
       <r>   21.2155    0.0000 </r>
       <r>   21.6952    0.0000 </r>
       <r>   22.6404    0.0000 </r>
       <r>   24.0429    0.0000 </r>
       <r>   24.8813    0.0000 </r>
       <r>   26.2503    0.0000 </r>
       <r>   27.6293    0.0000 </r>
       <r>   28.8040    0.0000 </r>
       <r>   29.0036    0.0000 </r>
       <r>   29.4566    0.0000 </r>
       <r>   29.9209    0.0000 </r>
      </set>
      <set comment="kpoint 15">
       <r>   -1.8118    1.0000 </r>
       <r>   -0.2021    1.0000 </r>
       <r>    0.2300    1.0000 </r>
       <r>    0.2655    1.0000 </r>
       <r>    0.9685    1.0000 </r>
       <r>    1.0476    1.0000 </r>
       <r>    1.2721    1.0000 </r>
       <r>    5.7542    1.0000 </r>
       <r>    6.4915    0.8921 </r>
       <r>    9.3447    0.0000 </r>
       <r>   10.6478    0.0000 </r>
       <r>   11.6759    0.0000 </r>
       <r>   12.0361    0.0000 </r>
       <r>   14.2906    0.0000 </r>
       <r>   15.3269    0.0000 </r>
       <r>   16.4587    0.0000 </r>
       <r>   18.1251    0.0000 </r>
       <r>   19.1394    0.0000 </r>
       <r>   19.9484    0.0000 </r>
       <r>   21.3260    0.0000 </r>
       <r>   21.6047    0.0000 </r>
       <r>   23.3780    0.0000 </r>
       <r>   24.3735    0.0000 </r>
       <r>   25.0747    0.0000 </r>
       <r>   26.6627    0.0000 </r>
       <r>   27.3450    0.0000 </r>
       <r>   28.0178    0.0000 </r>
       <r>   28.1761    0.0000 </r>
       <r>   28.5272    0.0000 </r>
       <r>   29.5859    0.0000 </r>
      </set>
      <set comment="kpoint 16">
       <r>   -2.0209    1.0000 </r>
       <r>   -0.3157    1.0000 </r>
       <r>    0.1970    1.0000 </r>
       <r>    0.2234    1.0000 </r>
       <r>    0.9084    1.0000 </r>
       <r>    1.0100    1.0000 </r>
       <r>    1.9120    1.0000 </r>
       <r>    5.6515    1.0000 </r>
       <r>    6.8429    0.1061 </r>
       <r>    9.5207    0.0000 </r>
       <r>   10.5285    0.0000 </r>
       <r>   11.4372    0.0000 </r>
       <r>   12.3588    0.0000 </r>
       <r>   13.7411    0.0000 </r>
       <r>   15.0088    0.0000 </r>
       <r>   16.1979    0.0000 </r>
       <r>   18.1705    0.0000 </r>
       <r>   19.2501    0.0000 </r>
       <r>   20.2462    0.0000 </r>
       <r>   20.7673    0.0000 </r>
       <r>   22.0846    0.0000 </r>
       <r>   23.3964    0.0000 </r>
       <r>   23.7985    0.0000 </r>
       <r>   25.2269    0.0000 </r>
       <r>   25.5120    0.0000 </r>
       <r>   27.3134    0.0000 </r>
       <r>   28.5804    0.0000 </r>
       <r>   29.1027    0.0000 </r>
       <r>   29.4965    0.0000 </r>
       <r>   29.9596    0.0000 </r>
      </set>
      <set comment="kpoint 17">
       <r>   -2.6412    1.0000 </r>
       <r>   -0.4072    1.0000 </r>
       <r>    0.1423    1.0000 </r>
       <r>    0.1768    1.0000 </r>
       <r>    0.7981    1.0000 </r>
       <r>    1.0030    1.0000 </r>
       <r>    3.4242    1.0000 </r>
       <r>    5.8137    1.0000 </r>
       <r>    7.5422    0.0000 </r>
       <r>    9.8032    0.0000 </r>
       <r>   10.5369    0.0000 </r>
       <r>   11.2936    0.0000 </r>
       <r>   12.3062    0.0000 </r>
       <r>   12.8459    0.0000 </r>
       <r>   13.7701    0.0000 </r>
       <r>   16.2673    0.0000 </r>
       <r>   16.8156    0.0000 </r>
       <r>   19.3714    0.0000 </r>
       <r>   19.9416    0.0000 </r>
       <r>   21.0339    0.0000 </r>
       <r>   21.5677    0.0000 </r>
       <r>   22.6276    0.0000 </r>
       <r>   23.5269    0.0000 </r>
       <r>   25.6080    0.0000 </r>
       <r>   26.6343    0.0000 </r>
       <r>   27.6922    0.0000 </r>
       <r>   28.9511    0.0000 </r>
       <r>   30.0487    0.0000 </r>
       <r>   30.4301    0.0000 </r>
       <r>   31.0637    0.0000 </r>
      </set>
      <set comment="kpoint 18">
       <r>   -3.2589    1.0000 </r>
       <r>   -0.3426    1.0000 </r>
       <r>    0.0799    1.0000 </r>
       <r>    0.0811    1.0000 </r>
       <r>    0.7711    1.0000 </r>
       <r>    0.9537    1.0000 </r>
       <r>    5.2668    1.0000 </r>
       <r>    6.2389    0.9988 </r>
       <r>    8.3962    0.0000 </r>
       <r>    9.8336    0.0000 </r>
       <r>   10.7305    0.0000 </r>
       <r>   11.2178    0.0000 </r>
       <r>   11.5069    0.0000 </r>
       <r>   12.6943    0.0000 </r>
       <r>   13.1915    0.0000 </r>
       <r>   14.9099    0.0000 </r>
       <r>   15.7620    0.0000 </r>
       <r>   17.7179    0.0000 </r>
       <r>   18.3604    0.0000 </r>
       <r>   20.8861    0.0000 </r>
       <r>   21.8322    0.0000 </r>
       <r>   23.5430    0.0000 </r>
       <r>   24.7248    0.0000 </r>
       <r>   26.4101    0.0000 </r>
       <r>   27.8497    0.0000 </r>
       <r>   28.3872    0.0000 </r>
       <r>   29.7769    0.0000 </r>
       <r>   29.8277    0.0000 </r>
       <r>   31.3692    0.0000 </r>
       <r>   31.9168    0.0000 </r>
      </set>
      <set comment="kpoint 19">
       <r>   -3.6836    1.0000 </r>
       <r>   -0.2395    1.0000 </r>
       <r>   -0.0133    1.0000 </r>
       <r>   -0.0044    1.0000 </r>
       <r>    0.8110    1.0000 </r>
       <r>    0.9131    1.0000 </r>
       <r>    6.6626    0.5111 </r>
       <r>    7.4729    0.0000 </r>
       <r>    8.8712    0.0000 </r>
       <r>    9.4542    0.0000 </r>
       <r>   10.9706    0.0000 </r>
       <r>   11.1568    0.0000 </r>
       <r>   11.7754    0.0000 </r>
       <r>   12.3256    0.0000 </r>
       <r>   12.7032    0.0000 </r>
       <r>   13.2365    0.0000 </r>
       <r>   15.4343    0.0000 </r>
       <r>   15.8121    0.0000 </r>
       <r>   16.9305    0.0000 </r>
       <r>   19.5655    0.0000 </r>
       <r>   23.7539    0.0000 </r>
       <r>   24.5967    0.0000 </r>
       <r>   25.6828    0.0000 </r>
       <r>   27.3245    0.0000 </r>
       <r>   28.6412    0.0000 </r>
       <r>   29.5624    0.0000 </r>
       <r>   29.6892    0.0000 </r>
       <r>   30.3890    0.0000 </r>
       <r>   30.9890    0.0000 </r>
       <r>   31.5672    0.0000 </r>
      </set>
      <set comment="kpoint 20">
       <r>   -3.1573    1.0000 </r>
       <r>   -0.4268    1.0000 </r>
       <r>    0.1581    1.0000 </r>
       <r>    0.1595    1.0000 </r>
       <r>    0.6563    1.0000 </r>
       <r>    1.0074    1.0000 </r>
       <r>    5.8258    1.0000 </r>
       <r>    6.5479    0.7992 </r>
       <r>    6.6897    0.4349 </r>
       <r>    8.4294    0.0000 </r>
       <r>    9.8015    0.0000 </r>
       <r>   12.8082    0.0000 </r>
       <r>   13.2042    0.0000 </r>
       <r>   13.3001    0.0000 </r>
       <r>   14.6484    0.0000 </r>
       <r>   14.6601    0.0000 </r>
       <r>   15.0623    0.0000 </r>
       <r>   16.8945    0.0000 </r>
       <r>   17.9568    0.0000 </r>
       <r>   21.8317    0.0000 </r>
       <r>   22.4051    0.0000 </r>
       <r>   22.4540    0.0000 </r>
       <r>   25.4394    0.0000 </r>
       <r>   26.1776    0.0000 </r>
       <r>   26.4606    0.0000 </r>
       <r>   27.4974    0.0000 </r>
       <r>   30.1175    0.0000 </r>
       <r>   30.2110    0.0000 </r>
       <r>   30.8476    0.0000 </r>
       <r>   30.8518    0.0000 </r>
      </set>
      <set comment="kpoint 21">
       <r>   -2.6576    1.0000 </r>
       <r>   -0.5286    1.0000 </r>
       <r>    0.2332    1.0000 </r>
       <r>    0.2790    1.0000 </r>
       <r>    0.6374    1.0000 </r>
       <r>    1.0516    1.0000 </r>
       <r>    4.4848    1.0000 </r>
       <r>    5.6096    1.0000 </r>
       <r>    6.2613    0.9979 </r>
       <r>    8.6770    0.0000 </r>
       <r>    9.7777    0.0000 </r>
       <r>   12.6889    0.0000 </r>
       <r>   13.3511    0.0000 </r>
       <r>   13.8077    0.0000 </r>
       <r>   15.2873    0.0000 </r>
       <r>   15.5907    0.0000 </r>
       <r>   16.1982    0.0000 </r>
       <r>   18.2031    0.0000 </r>
       <r>   19.3001    0.0000 </r>
       <r>   20.9043    0.0000 </r>
       <r>   21.4204    0.0000 </r>
       <r>   23.1748    0.0000 </r>
       <r>   25.0312    0.0000 </r>
       <r>   25.2251    0.0000 </r>
       <r>   25.9790    0.0000 </r>
       <r>   26.4304    0.0000 </r>
       <r>   28.7575    0.0000 </r>
       <r>   29.1379    0.0000 </r>
       <r>   30.2194    0.0000 </r>
       <r>   30.6601    0.0000 </r>
      </set>
      <set comment="kpoint 22">
       <r>   -2.0042    1.0000 </r>
       <r>   -0.5670    1.0000 </r>
       <r>    0.2068    1.0000 </r>
       <r>    0.3602    1.0000 </r>
       <r>    0.8184    1.0000 </r>
       <r>    1.0650    1.0000 </r>
       <r>    2.8879    1.0000 </r>
       <r>    5.0477    1.0000 </r>
       <r>    5.7876    1.0000 </r>
       <r>    8.8428    0.0000 </r>
       <r>   10.7251    0.0000 </r>
       <r>   12.0733    0.0000 </r>
       <r>   13.3967    0.0000 </r>
       <r>   13.6639    0.0000 </r>
       <r>   16.1143    0.0000 </r>
       <r>   16.8921    0.0000 </r>
       <r>   17.5278    0.0000 </r>
       <r>   18.5150    0.0000 </r>
       <r>   19.8589    0.0000 </r>
       <r>   20.5038    0.0000 </r>
       <r>   22.1940    0.0000 </r>
       <r>   23.5646    0.0000 </r>
       <r>   24.0296    0.0000 </r>
       <r>   24.3954    0.0000 </r>
       <r>   25.5600    0.0000 </r>
       <r>   27.0080    0.0000 </r>
       <r>   27.4294    0.0000 </r>
       <r>   28.0208    0.0000 </r>
       <r>   28.6560    0.0000 </r>
       <r>   30.7951    0.0000 </r>
      </set>
      <set comment="kpoint 23">
       <r>   -1.4821    1.0000 </r>
       <r>   -0.4369    1.0000 </r>
       <r>    0.1926    1.0000 </r>
       <r>    0.3915    1.0000 </r>
       <r>    0.9723    1.0000 </r>
       <r>    1.0591    1.0000 </r>
       <r>    1.7353    1.0000 </r>
       <r>    4.5176    1.0000 </r>
       <r>    5.7483    1.0000 </r>
       <r>    8.9402    0.0000 </r>
       <r>   11.5870    0.0000 </r>
       <r>   12.0429    0.0000 </r>
       <r>   12.9703    0.0000 </r>
       <r>   14.0592    0.0000 </r>
       <r>   15.5459    0.0000 </r>
       <r>   16.9001    0.0000 </r>
       <r>   18.4080    0.0000 </r>
       <r>   19.2203    0.0000 </r>
       <r>   20.3365    0.0000 </r>
       <r>   21.1214    0.0000 </r>
       <r>   21.8253    0.0000 </r>
       <r>   22.7477    0.0000 </r>
       <r>   24.9619    0.0000 </r>
       <r>   25.3554    0.0000 </r>
       <r>   25.6326    0.0000 </r>
       <r>   26.2243    0.0000 </r>
       <r>   26.9646    0.0000 </r>
       <r>   27.4802    0.0000 </r>
       <r>   28.5755    0.0000 </r>
       <r>   29.0123    0.0000 </r>
      </set>
      <set comment="kpoint 24">
       <r>   -1.5111    1.0000 </r>
       <r>   -0.3929    1.0000 </r>
       <r>    0.2516    1.0000 </r>
       <r>    0.3860    1.0000 </r>
       <r>    0.8263    1.0000 </r>
       <r>    0.9261    1.0000 </r>
       <r>    2.0101    1.0000 </r>
       <r>    4.1458    1.0000 </r>
       <r>    6.1461    0.9999 </r>
       <r>    9.1570    0.0000 </r>
       <r>   11.2566    0.0000 </r>
       <r>   12.4499    0.0000 </r>
       <r>   13.1955    0.0000 </r>
       <r>   14.1665    0.0000 </r>
       <r>   14.8685    0.0000 </r>
       <r>   15.4999    0.0000 </r>
       <r>   19.0609    0.0000 </r>
       <r>   19.8919    0.0000 </r>
       <r>   20.2788    0.0000 </r>
       <r>   21.2901    0.0000 </r>
       <r>   21.9122    0.0000 </r>
       <r>   23.7340    0.0000 </r>
       <r>   24.5375    0.0000 </r>
       <r>   24.7460    0.0000 </r>
       <r>   25.4171    0.0000 </r>
       <r>   25.7406    0.0000 </r>
       <r>   26.9805    0.0000 </r>
       <r>   28.2250    0.0000 </r>
       <r>   29.0598    0.0000 </r>
       <r>   29.6857    0.0000 </r>
      </set>
      <set comment="kpoint 25">
       <r>   -2.0537    1.0000 </r>
       <r>   -0.4785    1.0000 </r>
       <r>    0.1839    1.0000 </r>
       <r>    0.3245    1.0000 </r>
       <r>    0.7801    1.0000 </r>
       <r>    1.0030    1.0000 </r>
       <r>    3.1113    1.0000 </r>
       <r>    4.1567    1.0000 </r>
       <r>    6.8359    0.1155 </r>
       <r>    9.5462    0.0000 </r>
       <r>   10.9558    0.0000 </r>
       <r>   12.1655    0.0000 </r>
       <r>   12.4288    0.0000 </r>
       <r>   13.7752    0.0000 </r>
       <r>   14.6649    0.0000 </r>
       <r>   15.5901    0.0000 </r>
       <r>   18.0129    0.0000 </r>
       <r>   18.6290    0.0000 </r>
       <r>   21.3961    0.0000 </r>
       <r>   21.8326    0.0000 </r>
       <r>   22.8537    0.0000 </r>
       <r>   23.2149    0.0000 </r>
       <r>   23.6387    0.0000 </r>
       <r>   23.8548    0.0000 </r>
       <r>   24.6530    0.0000 </r>
       <r>   26.7128    0.0000 </r>
       <r>   28.2392    0.0000 </r>
       <r>   28.8217    0.0000 </r>
       <r>   29.8575    0.0000 </r>
       <r>   30.6828    0.0000 </r>
      </set>
      <set comment="kpoint 26">
       <r>   -2.6981    1.0000 </r>
       <r>   -0.4324    1.0000 </r>
       <r>    0.1437    1.0000 </r>
       <r>    0.1977    1.0000 </r>
       <r>    0.7557    1.0000 </r>
       <r>    1.0087    1.0000 </r>
       <r>    4.0392    1.0000 </r>
       <r>    5.1307    1.0000 </r>
       <r>    7.6359    0.0000 </r>
       <r>   10.0429    0.0000 </r>
       <r>   10.4572    0.0000 </r>
       <r>   11.6141    0.0000 </r>
       <r>   11.8227    0.0000 </r>
       <r>   13.1857    0.0000 </r>
       <r>   13.8563    0.0000 </r>
       <r>   15.8915    0.0000 </r>
       <r>   16.6923    0.0000 </r>
       <r>   18.8977    0.0000 </r>
       <r>   19.9725    0.0000 </r>
       <r>   20.8972    0.0000 </r>
       <r>   22.2234    0.0000 </r>
       <r>   22.7636    0.0000 </r>
       <r>   23.9001    0.0000 </r>
       <r>   25.3770    0.0000 </r>
       <r>   25.9107    0.0000 </r>
       <r>   28.1508    0.0000 </r>
       <r>   28.5340    0.0000 </r>
       <r>   30.0234    0.0000 </r>
       <r>   30.3385    0.0000 </r>
       <r>   31.4746    0.0000 </r>
      </set>
      <set comment="kpoint 27">
       <r>   -3.1829    1.0000 </r>
       <r>   -0.3385    1.0000 </r>
       <r>    0.0798    1.0000 </r>
       <r>    0.0819    1.0000 </r>
       <r>    0.8001    1.0000 </r>
       <r>    0.9441    1.0000 </r>
       <r>    4.6080    1.0000 </r>
       <r>    6.9158    0.0390 </r>
       <r>    8.1078    0.0000 </r>
       <r>    9.6947    0.0000 </r>
       <r>   10.7837    0.0000 </r>
       <r>   11.1519    0.0000 </r>
       <r>   11.8728    0.0000 </r>
       <r>   12.3187    0.0000 </r>
       <r>   13.2340    0.0000 </r>
       <r>   14.5039    0.0000 </r>
       <r>   16.6723    0.0000 </r>
       <r>   18.2774    0.0000 </r>
       <r>   18.4008    0.0000 </r>
       <r>   20.8903    0.0000 </r>
       <r>   21.9157    0.0000 </r>
       <r>   22.8946    0.0000 </r>
       <r>   23.9752    0.0000 </r>
       <r>   27.2722    0.0000 </r>
       <r>   27.7304    0.0000 </r>
       <r>   28.7332    0.0000 </r>
       <r>   29.3273    0.0000 </r>
       <r>   29.9726    0.0000 </r>
       <r>   31.0237    0.0000 </r>
       <r>   31.9844    0.0000 </r>
      </set>
      <set comment="kpoint 28">
       <r>   -2.2290    1.0000 </r>
       <r>   -0.6371    1.0000 </r>
       <r>    0.3603    1.0000 </r>
       <r>    0.4103    1.0000 </r>
       <r>    0.5383    1.0000 </r>
       <r>    1.1032    1.0000 </r>
       <r>    3.9689    1.0000 </r>
       <r>    5.3421    1.0000 </r>
       <r>    5.4226    1.0000 </r>
       <r>    8.1855    0.0000 </r>
       <r>    9.1682    0.0000 </r>
       <r>   13.9525    0.0000 </r>
       <r>   14.2807    0.0000 </r>
       <r>   14.6094    0.0000 </r>
       <r>   15.1331    0.0000 </r>
       <r>   16.8067    0.0000 </r>
       <r>   16.8405    0.0000 </r>
       <r>   18.0419    0.0000 </r>
       <r>   20.0877    0.0000 </r>
       <r>   20.5090    0.0000 </r>
       <r>   20.8448    0.0000 </r>
       <r>   23.0201    0.0000 </r>
       <r>   24.2730    0.0000 </r>
       <r>   24.2835    0.0000 </r>
       <r>   26.3711    0.0000 </r>
       <r>   26.5181    0.0000 </r>
       <r>   27.1934    0.0000 </r>
       <r>   27.3077    0.0000 </r>
       <r>   30.7476    0.0000 </r>
       <r>   31.6828    0.0000 </r>
      </set>
      <set comment="kpoint 29">
       <r>   -1.6196    1.0000 </r>
       <r>   -0.7033    1.0000 </r>
       <r>    0.2543    1.0000 </r>
       <r>    0.5324    1.0000 </r>
       <r>    0.7330    1.0000 </r>
       <r>    1.1204    1.0000 </r>
       <r>    2.8930    1.0000 </r>
       <r>    4.6278    1.0000 </r>
       <r>    5.0607    1.0000 </r>
       <r>    8.4272    0.0000 </r>
       <r>    9.3393    0.0000 </r>
       <r>   13.3969    0.0000 </r>
       <r>   14.7778    0.0000 </r>
       <r>   15.3285    0.0000 </r>
       <r>   15.7902    0.0000 </r>
       <r>   17.3759    0.0000 </r>
       <r>   18.0979    0.0000 </r>
       <r>   18.9891    0.0000 </r>
       <r>   19.2685    0.0000 </r>
       <r>   19.8966    0.0000 </r>
       <r>   22.3799    0.0000 </r>
       <r>   22.7799    0.0000 </r>
       <r>   23.0372    0.0000 </r>
       <r>   24.2728    0.0000 </r>
       <r>   25.4720    0.0000 </r>
       <r>   25.6042    0.0000 </r>
       <r>   26.4498    0.0000 </r>
       <r>   27.7019    0.0000 </r>
       <r>   29.8616    0.0000 </r>
       <r>   31.5905    0.0000 </r>
      </set>
      <set comment="kpoint 30">
       <r>   -1.0439    1.0000 </r>
       <r>   -0.6195    1.0000 </r>
       <r>    0.0867    1.0000 </r>
       <r>    0.5788    1.0000 </r>
       <r>    1.0225    1.0000 </r>
       <r>    1.0848    1.0000 </r>
       <r>    1.9540    1.0000 </r>
       <r>    3.8130    1.0000 </r>
       <r>    5.0449    1.0000 </r>
       <r>    8.6239    0.0000 </r>
       <r>   10.4158    0.0000 </r>
       <r>   12.7555    0.0000 </r>
       <r>   14.3492    0.0000 </r>
       <r>   15.4349    0.0000 </r>
       <r>   16.1864    0.0000 </r>
       <r>   17.2788    0.0000 </r>
       <r>   18.4043    0.0000 </r>
       <r>   19.2112    0.0000 </r>
       <r>   20.1955    0.0000 </r>
       <r>   21.1404    0.0000 </r>
       <r>   21.1744    0.0000 </r>
       <r>   23.0157    0.0000 </r>
       <r>   23.9266    0.0000 </r>
       <r>   24.3961    0.0000 </r>
       <r>   24.9327    0.0000 </r>
       <r>   25.1549    0.0000 </r>
       <r>   26.0286    0.0000 </r>
       <r>   28.2721    0.0000 </r>
       <r>   28.8590    0.0000 </r>
       <r>   30.3933    0.0000 </r>
      </set>
      <set comment="kpoint 31">
       <r>   -1.0122    1.0000 </r>
       <r>   -0.3859    1.0000 </r>
       <r>    0.1195    1.0000 </r>
       <r>    0.5599    1.0000 </r>
       <r>    0.7350    1.0000 </r>
       <r>    0.9942    1.0000 </r>
       <r>    2.2216    1.0000 </r>
       <r>    3.1110    1.0000 </r>
       <r>    5.4306    1.0000 </r>
       <r>    8.8134    0.0000 </r>
       <r>   11.8579    0.0000 </r>
       <r>   12.1908    0.0000 </r>
       <r>   13.8723    0.0000 </r>
       <r>   14.3116    0.0000 </r>
       <r>   15.8043    0.0000 </r>
       <r>   16.5328    0.0000 </r>
       <r>   18.6511    0.0000 </r>
       <r>   19.9759    0.0000 </r>
       <r>   20.3846    0.0000 </r>
       <r>   21.6743    0.0000 </r>
       <r>   22.3616    0.0000 </r>
       <r>   23.0845    0.0000 </r>
       <r>   23.9805    0.0000 </r>
       <r>   24.1537    0.0000 </r>
       <r>   24.5960    0.0000 </r>
       <r>   25.2667    0.0000 </r>
       <r>   27.1106    0.0000 </r>
       <r>   27.8705    0.0000 </r>
       <r>   28.9978    0.0000 </r>
       <r>   29.6881    0.0000 </r>
      </set>
      <set comment="kpoint 32">
       <r>   -1.4351    1.0000 </r>
       <r>   -0.4605    1.0000 </r>
       <r>    0.2347    1.0000 </r>
       <r>    0.4491    1.0000 </r>
       <r>    0.7891    1.0000 </r>
       <r>    0.8723    1.0000 </r>
       <r>    2.6163    1.0000 </r>
       <r>    3.3715    1.0000 </r>
       <r>    6.0866    1.0000 </r>
       <r>    9.1242    0.0000 </r>
       <r>   11.5306    0.0000 </r>
       <r>   12.6826    0.0000 </r>
       <r>   13.1797    0.0000 </r>
       <r>   13.8854    0.0000 </r>
       <r>   15.0922    0.0000 </r>
       <r>   15.6689    0.0000 </r>
       <r>   18.1025    0.0000 </r>
       <r>   20.1070    0.0000 </r>
       <r>   21.0339    0.0000 </r>
       <r>   21.9048    0.0000 </r>
       <r>   22.5784    0.0000 </r>
       <r>   23.3291    0.0000 </r>
       <r>   23.7348    0.0000 </r>
       <r>   24.6070    0.0000 </r>
       <r>   25.1562    0.0000 </r>
       <r>   25.3566    0.0000 </r>
       <r>   26.5514    0.0000 </r>
       <r>   28.0402    0.0000 </r>
       <r>   29.7362    0.0000 </r>
       <r>   29.9552    0.0000 </r>
      </set>
      <set comment="kpoint 33">
       <r>   -2.0410    1.0000 </r>
       <r>   -0.4243    1.0000 </r>
       <r>    0.1893    1.0000 </r>
       <r>    0.2805    1.0000 </r>
       <r>    0.8344    1.0000 </r>
       <r>    1.0059    1.0000 </r>
       <r>    2.5027    1.0000 </r>
       <r>    4.8707    1.0000 </r>
       <r>    6.8382    0.1123 </r>
       <r>    9.5379    0.0000 </r>
       <r>   10.7190    0.0000 </r>
       <r>   11.8321    0.0000 </r>
       <r>   12.8531    0.0000 </r>
       <r>   13.5231    0.0000 </r>
       <r>   14.4716    0.0000 </r>
       <r>   16.0196    0.0000 </r>
       <r>   18.0997    0.0000 </r>
       <r>   19.0732    0.0000 </r>
       <r>   20.5354    0.0000 </r>
       <r>   21.6984    0.0000 </r>
       <r>   22.2570    0.0000 </r>
       <r>   23.1211    0.0000 </r>
       <r>   23.7419    0.0000 </r>
       <r>   24.4287    0.0000 </r>
       <r>   25.8194    0.0000 </r>
       <r>   26.2905    0.0000 </r>
       <r>   28.6021    0.0000 </r>
       <r>   29.1009    0.0000 </r>
       <r>   29.5596    0.0000 </r>
       <r>   30.5224    0.0000 </r>
      </set>
      <set comment="kpoint 34">
       <r>   -2.5319    1.0000 </r>
       <r>   -0.3556    1.0000 </r>
       <r>    0.1394    1.0000 </r>
       <r>    0.1512    1.0000 </r>
       <r>    0.8629    1.0000 </r>
       <r>    0.9929    1.0000 </r>
       <r>    2.8008    1.0000 </r>
       <r>    6.5227    0.8453 </r>
       <r>    7.3549    0.0000 </r>
       <r>    9.6276    0.0000 </r>
       <r>   10.6307    0.0000 </r>
       <r>   10.9592    0.0000 </r>
       <r>   11.8164    0.0000 </r>
       <r>   13.0610    0.0000 </r>
       <r>   14.4638    0.0000 </r>
       <r>   15.7491    0.0000 </r>
       <r>   17.8103    0.0000 </r>
       <r>   19.3973    0.0000 </r>
       <r>   20.2103    0.0000 </r>
       <r>   20.9445    0.0000 </r>
       <r>   21.4128    0.0000 </r>
       <r>   21.8892    0.0000 </r>
       <r>   23.8423    0.0000 </r>
       <r>   25.4118    0.0000 </r>
       <r>   26.7871    0.0000 </r>
       <r>   28.0439    0.0000 </r>
       <r>   29.3146    0.0000 </r>
       <r>   29.9276    0.0000 </r>
       <r>   30.2376    0.0000 </r>
       <r>   30.8269    0.0000 </r>
      </set>
      <set comment="kpoint 35">
       <r>   -1.1015    1.0000 </r>
       <r>   -0.7800    1.0000 </r>
       <r>    0.2986    1.0000 </r>
       <r>    0.6429    1.0000 </r>
       <r>    0.7152    1.0000 </r>
       <r>    1.1683    1.0000 </r>
       <r>    2.1911    1.0000 </r>
       <r>    4.5666    1.0000 </r>
       <r>    4.6975    1.0000 </r>
       <r>    8.0738    0.0000 </r>
       <r>    8.8762    0.0000 </r>
       <r>   14.2906    0.0000 </r>
       <r>   15.5392    0.0000 </r>
       <r>   15.9140    0.0000 </r>
       <r>   16.4283    0.0000 </r>
       <r>   17.7726    0.0000 </r>
       <r>   17.8557    0.0000 </r>
       <r>   19.1864    0.0000 </r>
       <r>   19.9682    0.0000 </r>
       <r>   20.1704    0.0000 </r>
       <r>   21.3605    0.0000 </r>
       <r>   21.9785    0.0000 </r>
       <r>   23.5947    0.0000 </r>
       <r>   23.6909    0.0000 </r>
       <r>   24.1072    0.0000 </r>
       <r>   24.2516    0.0000 </r>
       <r>   26.4188    0.0000 </r>
       <r>   28.9631    0.0000 </r>
       <r>   29.9623    0.0000 </r>
       <r>   30.5136    0.0000 </r>
      </set>
      <set comment="kpoint 36">
       <r>   -0.7979    1.0000 </r>
       <r>   -0.5838    1.0000 </r>
       <r>    0.0829    1.0000 </r>
       <r>    0.7003    1.0000 </r>
       <r>    1.0397    1.0000 </r>
       <r>    1.1283    1.0000 </r>
       <r>    1.5384    1.0000 </r>
       <r>    4.1252    1.0000 </r>
       <r>    4.5627    1.0000 </r>
       <r>    8.3338    0.0000 </r>
       <r>    9.1703    0.0000 </r>
       <r>   13.7971    0.0000 </r>
       <r>   15.8746    0.0000 </r>
       <r>   16.2205    0.0000 </r>
       <r>   17.0073    0.0000 </r>
       <r>   17.0866    0.0000 </r>
       <r>   17.5651    0.0000 </r>
       <r>   20.1907    0.0000 </r>
       <r>   20.3977    0.0000 </r>
       <r>   20.8667    0.0000 </r>
       <r>   21.3186    0.0000 </r>
       <r>   21.7616    0.0000 </r>
       <r>   22.4227    0.0000 </r>
       <r>   23.0949    0.0000 </r>
       <r>   23.8510    0.0000 </r>
       <r>   25.7396    0.0000 </r>
       <r>   26.2408    0.0000 </r>
       <r>   28.2935    0.0000 </r>
       <r>   29.6879    0.0000 </r>
       <r>   29.9505    0.0000 </r>
      </set>
      <set comment="kpoint 37">
       <r>   -0.8330    1.0000 </r>
       <r>   -0.3905    1.0000 </r>
       <r>   -0.0840    1.0000 </r>
       <r>    0.6471    1.0000 </r>
       <r>    0.9707    1.0000 </r>
       <r>    1.1853    1.0000 </r>
       <r>    1.6857    1.0000 </r>
       <r>    3.4902    1.0000 </r>
       <r>    4.9060    1.0000 </r>
       <r>    8.5851    0.0000 </r>
       <r>   10.3546    0.0000 </r>
       <r>   12.9606    0.0000 </r>
       <r>   14.8299    0.0000 </r>
       <r>   15.2896    0.0000 </r>
       <r>   16.6085    0.0000 </r>
       <r>   17.1283    0.0000 </r>
       <r>   18.4742    0.0000 </r>
       <r>   19.3549    0.0000 </r>
       <r>   20.5451    0.0000 </r>
       <r>   21.5478    0.0000 </r>
       <r>   21.6780    0.0000 </r>
       <r>   22.5456    0.0000 </r>
       <r>   22.7395    0.0000 </r>
       <r>   23.7674    0.0000 </r>
       <r>   24.6592    0.0000 </r>
       <r>   25.0217    0.0000 </r>
       <r>   27.2655    0.0000 </r>
       <r>   28.2098    0.0000 </r>
       <r>   28.9247    0.0000 </r>
       <r>   29.5791    0.0000 </r>
      </set>
      <set comment="kpoint 38">
       <r>   -1.1819    1.0000 </r>
       <r>   -0.4271    1.0000 </r>
       <r>    0.1587    1.0000 </r>
       <r>    0.4892    1.0000 </r>
       <r>    0.8539    1.0000 </r>
       <r>    1.0445    1.0000 </r>
       <r>    1.8689    1.0000 </r>
       <r>    3.7450    1.0000 </r>
       <r>    5.5333    1.0000 </r>
       <r>    8.8538    0.0000 </r>
       <r>   11.9222    0.0000 </r>
       <r>   11.9426    0.0000 </r>
       <r>   13.4241    0.0000 </r>
       <r>   14.6679    0.0000 </r>
       <r>   15.4605    0.0000 </r>
       <r>   16.4189    0.0000 </r>
       <r>   19.3140    0.0000 </r>
       <r>   19.6832    0.0000 </r>
       <r>   20.0388    0.0000 </r>
       <r>   20.9189    0.0000 </r>
       <r>   22.0033    0.0000 </r>
       <r>   23.3738    0.0000 </r>
       <r>   24.2382    0.0000 </r>
       <r>   24.7314    0.0000 </r>
       <r>   25.3457    0.0000 </r>
       <r>   25.7766    0.0000 </r>
       <r>   26.7801    0.0000 </r>
       <r>   27.4389    0.0000 </r>
       <r>   28.6978    0.0000 </r>
       <r>   29.2498    0.0000 </r>
      </set>
      <set comment="kpoint 39">
       <r>   -1.6433    1.0000 </r>
       <r>   -0.2923    1.0000 </r>
       <r>    0.2734    1.0000 </r>
       <r>    0.3041    1.0000 </r>
       <r>    0.8926    1.0000 </r>
       <r>    0.9989    1.0000 </r>
       <r>    1.5270    1.0000 </r>
       <r>    4.9658    1.0000 </r>
       <r>    6.2731    0.9973 </r>
       <r>    9.2265    0.0000 </r>
       <r>   10.9227    0.0000 </r>
       <r>   12.0794    0.0000 </r>
       <r>   12.8371    0.0000 </r>
       <r>   14.3131    0.0000 </r>
       <r>   14.7225    0.0000 </r>
       <r>   16.0543    0.0000 </r>
       <r>   18.8895    0.0000 </r>
       <r>   19.9568    0.0000 </r>
       <r>   20.0651    0.0000 </r>
       <r>   20.6135    0.0000 </r>
       <r>   21.5975    0.0000 </r>
       <r>   23.9121    0.0000 </r>
       <r>   24.0769    0.0000 </r>
       <r>   25.4212    0.0000 </r>
       <r>   26.0127    0.0000 </r>
       <r>   26.9601    0.0000 </r>
       <r>   27.3665    0.0000 </r>
       <r>   27.9118    0.0000 </r>
       <r>   28.6038    0.0000 </r>
       <r>   29.4165    0.0000 </r>
      </set>
      <set comment="kpoint 40">
       <r>   -2.0015    1.0000 </r>
       <r>   -0.1617    1.0000 </r>
       <r>    0.1759    1.0000 </r>
       <r>    0.2031    1.0000 </r>
       <r>    0.9729    1.0000 </r>
       <r>    1.0131    1.0000 </r>
       <r>    1.4218    1.0000 </r>
       <r>    6.3586    0.9853 </r>
       <r>    6.8516    0.0954 </r>
       <r>    9.5412    0.0000 </r>
       <r>   10.4863    0.0000 </r>
       <r>   11.0546    0.0000 </r>
       <r>   11.4354    0.0000 </r>
       <r>   14.4966    0.0000 </r>
       <r>   15.5217    0.0000 </r>
       <r>   16.3291    0.0000 </r>
       <r>   18.0066    0.0000 </r>
       <r>   18.6913    0.0000 </r>
       <r>   19.7639    0.0000 </r>
       <r>   21.1120    0.0000 </r>
       <r>   22.0723    0.0000 </r>
       <r>   23.4861    0.0000 </r>
       <r>   24.1630    0.0000 </r>
       <r>   24.7735    0.0000 </r>
       <r>   26.0146    0.0000 </r>
       <r>   27.7336    0.0000 </r>
       <r>   28.6097    0.0000 </r>
       <r>   29.0020    0.0000 </r>
       <r>   29.4721    0.0000 </r>
       <r>   29.7681    0.0000 </r>
      </set>
      <set comment="kpoint 41">
       <r>   -0.8122    1.0000 </r>
       <r>   -0.6490    1.0000 </r>
       <r>    0.2515    1.0000 </r>
       <r>    0.7043    1.0000 </r>
       <r>    0.8081    1.0000 </r>
       <r>    1.1814    1.0000 </r>
       <r>    1.5923    1.0000 </r>
       <r>    4.3998    1.0000 </r>
       <r>    4.5385    1.0000 </r>
       <r>    8.0534    0.0000 </r>
       <r>    8.8233    0.0000 </r>
       <r>   14.3164    0.0000 </r>
       <r>   16.1792    0.0000 </r>
       <r>   16.5145    0.0000 </r>
       <r>   17.0072    0.0000 </r>
       <r>   17.2589    0.0000 </r>
       <r>   17.3144    0.0000 </r>
       <r>   19.8348    0.0000 </r>
       <r>   20.5210    0.0000 </r>
       <r>   20.8071    0.0000 </r>
       <r>   21.2235    0.0000 </r>
       <r>   21.5895    0.0000 </r>
       <r>   22.6494    0.0000 </r>
       <r>   22.6652    0.0000 </r>
       <r>   23.5000    0.0000 </r>
       <r>   25.2661    0.0000 </r>
       <r>   26.3907    0.0000 </r>
       <r>   28.0907    0.0000 </r>
       <r>   30.3377    0.0000 </r>
       <r>   30.4634    0.0000 </r>
      </set>
      <set comment="kpoint 42">
       <r>   -1.0587    1.0000 </r>
       <r>   -0.7574    1.0000 </r>
       <r>    0.1866    1.0000 </r>
       <r>    0.6380    1.0000 </r>
       <r>    0.8681    1.0000 </r>
       <r>    1.1306    1.0000 </r>
       <r>    2.1303    1.0000 </r>
       <r>    4.2992    1.0000 </r>
       <r>    4.7293    1.0000 </r>
       <r>    8.3640    0.0000 </r>
       <r>    9.2248    0.0000 </r>
       <r>   13.6596    0.0000 </r>
       <r>   15.3352    0.0000 </r>
       <r>   15.9760    0.0000 </r>
       <r>   16.3670    0.0000 </r>
       <r>   17.3777    0.0000 </r>
       <r>   18.0897    0.0000 </r>
       <r>   19.5146    0.0000 </r>
       <r>   19.8755    0.0000 </r>
       <r>   20.1338    0.0000 </r>
       <r>   21.7876    0.0000 </r>
       <r>   21.9582    0.0000 </r>
       <r>   23.5118    0.0000 </r>
       <r>   24.0483    0.0000 </r>
       <r>   24.3758    0.0000 </r>
       <r>   24.6396    0.0000 </r>
       <r>   26.1939    0.0000 </r>
       <r>   28.8634    0.0000 </r>
       <r>   29.7434    0.0000 </r>
       <r>   30.0244    0.0000 </r>
      </set>
      <set comment="kpoint 43">
       <r>   -1.5105    1.0000 </r>
       <r>   -0.6224    1.0000 </r>
       <r>    0.1719    1.0000 </r>
       <r>    0.4743    1.0000 </r>
       <r>    0.9376    1.0000 </r>
       <r>    1.0629    1.0000 </r>
       <r>    2.3867    1.0000 </r>
       <r>    4.3729    1.0000 </r>
       <r>    5.3290    1.0000 </r>
       <r>    8.7067    0.0000 </r>
       <r>   10.5389    0.0000 </r>
       <r>   12.4312    0.0000 </r>
       <r>   13.8596    0.0000 </r>
       <r>   14.6972    0.0000 </r>
       <r>   16.1619    0.0000 </r>
       <r>   17.7525    0.0000 </r>
       <r>   17.8927    0.0000 </r>
       <r>   18.4168    0.0000 </r>
       <r>   19.8693    0.0000 </r>
       <r>   20.7139    0.0000 </r>
       <r>   21.9683    0.0000 </r>
       <r>   23.4003    0.0000 </r>
       <r>   24.0199    0.0000 </r>
       <r>   24.6751    0.0000 </r>
       <r>   25.1697    0.0000 </r>
       <r>   25.7486    0.0000 </r>
       <r>   26.5476    0.0000 </r>
       <r>   27.9828    0.0000 </r>
       <r>   28.4232    0.0000 </r>
       <r>   30.9430    0.0000 </r>
      </set>
      <set comment="kpoint 44">
       <r>   -1.8398    1.0000 </r>
       <r>   -0.4166    1.0000 </r>
       <r>    0.2023    1.0000 </r>
       <r>    0.2954    1.0000 </r>
       <r>    0.9655    1.0000 </r>
       <r>    1.0242    1.0000 </r>
       <r>    1.9419    1.0000 </r>
       <r>    5.3071    1.0000 </r>
       <r>    6.1093    1.0000 </r>
       <r>    9.0841    0.0000 </r>
       <r>   11.2255    0.0000 </r>
       <r>   12.1549    0.0000 </r>
       <r>   12.5542    0.0000 </r>
       <r>   13.0761    0.0000 </r>
       <r>   15.8992    0.0000 </r>
       <r>   16.8857    0.0000 </r>
       <r>   18.0810    0.0000 </r>
       <r>   18.3888    0.0000 </r>
       <r>   20.2604    0.0000 </r>
       <r>   21.5856    0.0000 </r>
       <r>   21.9481    0.0000 </r>
       <r>   22.6245    0.0000 </r>
       <r>   24.1159    0.0000 </r>
       <r>   25.3738    0.0000 </r>
       <r>   25.8545    0.0000 </r>
       <r>   27.3882    0.0000 </r>
       <r>   27.6180    0.0000 </r>
       <r>   28.2898    0.0000 </r>
       <r>   28.4094    0.0000 </r>
       <r>   29.3963    0.0000 </r>
      </set>
      <set comment="kpoint 45">
       <r>   -1.6725    1.0000 </r>
       <r>   -0.7207    1.0000 </r>
       <r>    0.3488    1.0000 </r>
       <r>    0.5377    1.0000 </r>
       <r>    0.6074    1.0000 </r>
       <r>    1.1417    1.0000 </r>
       <r>    3.0317    1.0000 </r>
       <r>    4.8858    1.0000 </r>
       <r>    4.9998    1.0000 </r>
[...]
       <set comment="band 8">
        <r>  0.0550  0.1393  0.1900 </r>
        <r>  0.0793  0.0898  0.0178 </r>
        <r>  0.0793  0.0898  0.0178 </r>
       </set>
       <set comment="band 9">
        <r>  0.0014  0.1783  0.1169 </r>
        <r>  0.0110  0.1679  0.0157 </r>
        <r>  0.0110  0.1679  0.0157 </r>
       </set>
       <set comment="band 10">
        <r>  0.0173  0.0312  0.1469 </r>
        <r>  0.0869  0.0823  0.0457 </r>
        <r>  0.0869  0.0823  0.0457 </r>
       </set>
       <set comment="band 11">
        <r>  0.0247  0.0181  0.1300 </r>
        <r>  0.0553  0.1409  0.0542 </r>
        <r>  0.0553  0.1409  0.0542 </r>
       </set>
       <set comment="band 12">
        <r>  0.1299  0.0059  0.0285 </r>
        <r>  0.0017  0.1178  0.0942 </r>
        <r>  0.0017  0.1178  0.0942 </r>
       </set>
       <set comment="band 13">
        <r>  0.0048  0.0683  0.0657 </r>
        <r>  0.0108  0.1061  0.0921 </r>
        <r>  0.0108  0.1061  0.0921 </r>
       </set>
       <set comment="band 14">
        <r>  0.0017  0.0701  0.0428 </r>
        <r>  0.0549  0.1547  0.0533 </r>
        <r>  0.0549  0.1547  0.0533 </r>
       </set>
       <set comment="band 15">
        <r>  0.0034  0.1069  0.0912 </r>
        <r>  0.0609  0.1611  0.0537 </r>
        <r>  0.0609  0.1611  0.0537 </r>
       </set>
       <set comment="band 16">
        <r>  0.0094  0.1274  0.0563 </r>
        <r>  0.0110  0.0618  0.1195 </r>
        <r>  0.0110  0.0618  0.1195 </r>
       </set>
       <set comment="band 17">
        <r>  0.0068  0.0537  0.0313 </r>
        <r>  0.0213  0.0201  0.1816 </r>
        <r>  0.0213  0.0201  0.1816 </r>
       </set>
       <set comment="band 18">
        <r>  0.0129  0.0365  0.0491 </r>
        <r>  0.0194  0.1588  0.0940 </r>
        <r>  0.0194  0.1588  0.0940 </r>
       </set>
       <set comment="band 19">
        <r>  0.0062  0.0440  0.0286 </r>
        <r>  0.0104  0.1678  0.1126 </r>
        <r>  0.0104  0.1678  0.1126 </r>
       </set>
       <set comment="band 20">
        <r>  0.0002  0.0136  0.0147 </r>
        <r>  0.0015  0.0612  0.1853 </r>
        <r>  0.0015  0.0612  0.1853 </r>
       </set>
       <set comment="band 21">
        <r>  0.0059  0.0811  0.0917 </r>
        <r>  0.0029  0.0885  0.1480 </r>
        <r>  0.0029  0.0885  0.1480 </r>
       </set>
       <set comment="band 22">
        <r>  0.0221  0.0154  0.0273 </r>
        <r>  0.0043  0.0555  0.1374 </r>
        <r>  0.0043  0.0555  0.1374 </r>
       </set>
       <set comment="band 23">
        <r>  0.0003  0.1036  0.0365 </r>
        <r>  0.0082  0.0539  0.1246 </r>
        <r>  0.0082  0.0539  0.1246 </r>
       </set>
       <set comment="band 24">
        <r>  0.0005  0.0120  0.0100 </r>
        <r>  0.0142  0.0649  0.1538 </r>
        <r>  0.0142  0.0649  0.1538 </r>
       </set>
       <set comment="band 25">
        <r>  0.0154  0.0292  0.0724 </r>
        <r>  0.0067  0.0551  0.1461 </r>
        <r>  0.0067  0.0551  0.1461 </r>
       </set>
       <set comment="band 26">
        <r>  0.0186  0.0181  0.0285 </r>
        <r>  0.0013  0.0387  0.1712 </r>
        <r>  0.0013  0.0387  0.1712 </r>
       </set>
       <set comment="band 27">
        <r>  0.0164  0.1385  0.0355 </r>
        <r>  0.0004  0.0302  0.1096 </r>
        <r>  0.0004  0.0302  0.1096 </r>
       </set>
       <set comment="band 28">
        <r>  0.0069  0.0695  0.0586 </r>
        <r>  0.0018  0.0300  0.0640 </r>
        <r>  0.0018  0.0300  0.0640 </r>
       </set>
       <set comment="band 29">
        <r>  0.0732  0.0809  0.0761 </r>
        <r>  0.0002  0.0099  0.1059 </r>
        <r>  0.0002  0.0099  0.1059 </r>
       </set>
       <set comment="band 30">
        <r>  0.0095  0.0355  0.0187 </r>
        <r>  0.0004  0.0353  0.2064 </r>
        <r>  0.0004  0.0353  0.2064 </r>
       </set>
      </set>
      <set comment="kpoint 108">
       <set comment="band 1">
        <r>  0.1789  0.0100  0.2450 </r>
        <r>  0.1349  0.0358  0.0034 </r>
        <r>  0.1349  0.0358  0.0034 </r>
       </set>
       <set comment="band 2">
        <r>  0.0023  0.0498  0.4783 </r>
        <r>  0.1227  0.0156  0.0096 </r>
        <r>  0.1227  0.0156  0.0096 </r>
       </set>
       <set comment="band 3">
        <r>  0.0047  0.0217  0.6545 </r>
        <r>  0.0099  0.0514  0.0050 </r>
        <r>  0.0099  0.0514  0.0050 </r>
       </set>
       <set comment="band 4">
        <r>  0.0000  0.0010  0.8374 </r>
        <r>  0.0000  0.0362  0.0102 </r>
        <r>  0.0000  0.0362  0.0102 </r>
       </set>
       <set comment="band 5">
        <r>  0.0000  0.0009  0.8946 </r>
        <r>  0.0000  0.0041  0.0071 </r>
        <r>  0.0000  0.0041  0.0071 </r>
       </set>
       <set comment="band 6">
        <r>  0.1960  0.0030  0.5469 </r>
        <r>  0.0018  0.0478  0.0195 </r>
        <r>  0.0018  0.0478  0.0195 </r>
       </set>
       <set comment="band 7">
        <r>  0.0025  0.0742  0.5224 </r>
        <r>  0.0634  0.0413  0.0068 </r>
        <r>  0.0634  0.0413  0.0068 </r>
       </set>
       <set comment="band 8">
        <r>  0.0536  0.1558  0.1461 </r>
        <r>  0.0675  0.1057  0.0227 </r>
        <r>  0.0675  0.1057  0.0227 </r>
       </set>
       <set comment="band 9">
        <r>  0.0000  0.2131  0.0467 </r>
        <r>  0.0000  0.1916  0.0243 </r>
        <r>  0.0000  0.1916  0.0243 </r>
       </set>
       <set comment="band 10">
        <r>  0.0254  0.0015  0.1815 </r>
        <r>  0.1097  0.0578  0.0365 </r>
        <r>  0.1097  0.0578  0.0365 </r>
       </set>
       <set comment="band 11">
        <r>  0.0000  0.0136  0.1313 </r>
        <r>  0.0000  0.1706  0.0763 </r>
        <r>  0.0000  0.1706  0.0763 </r>
       </set>
       <set comment="band 12">
        <r>  0.1148  0.0219  0.0661 </r>
        <r>  0.0900  0.1146  0.0378 </r>
        <r>  0.0900  0.1146  0.0378 </r>
       </set>
       <set comment="band 13">
        <r>  0.0407  0.0235  0.0466 </r>
        <r>  0.0097  0.1408  0.0782 </r>
        <r>  0.0097  0.1408  0.0782 </r>
       </set>
       <set comment="band 14">
        <r>  0.0017  0.1070  0.0755 </r>
        <r>  0.0733  0.1317  0.0526 </r>
        <r>  0.0733  0.1317  0.0526 </r>
       </set>
       <set comment="band 15">
        <r>  0.0000  0.1730  0.0367 </r>
        <r>  0.0000  0.0214  0.1546 </r>
        <r>  0.0000  0.0214  0.1546 </r>
       </set>
       <set comment="band 16">
        <r>  0.0177  0.0746  0.0561 </r>
        <r>  0.0347  0.1345  0.0654 </r>
        <r>  0.0347  0.1345  0.0654 </r>
       </set>
       <set comment="band 17">
        <r>  0.0368  0.0556  0.0226 </r>
        <r>  0.0066  0.1470  0.1131 </r>
        <r>  0.0066  0.1470  0.1131 </r>
       </set>
       <set comment="band 18">
        <r>  0.0000  0.0219  0.0689 </r>
        <r>  0.0000  0.0373  0.1511 </r>
        <r>  0.0000  0.0373  0.1511 </r>
       </set>
       <set comment="band 19">
        <r>  0.0041  0.0197  0.0106 </r>
        <r>  0.0184  0.0975  0.1442 </r>
        <r>  0.0184  0.0975  0.1442 </r>
       </set>
       <set comment="band 20">
        <r>  0.0000  0.0040  0.0944 </r>
        <r>  0.0000  0.1455  0.1442 </r>
        <r>  0.0000  0.1455  0.1442 </r>
       </set>
       <set comment="band 21">
        <r>  0.0127  0.0788  0.0507 </r>
        <r>  0.0095  0.1091  0.1349 </r>
        <r>  0.0095  0.1091  0.1349 </r>
       </set>
       <set comment="band 22">
        <r>  0.0018  0.0621  0.0195 </r>
        <r>  0.0354  0.0343  0.1745 </r>
        <r>  0.0354  0.0343  0.1745 </r>
       </set>
       <set comment="band 23">
        <r>  0.0000  0.0007  0.0017 </r>
        <r>  0.0000  0.0637  0.1743 </r>
        <r>  0.0000  0.0637  0.1743 </r>
       </set>
       <set comment="band 24">
        <r>  0.0002  0.0237  0.0516 </r>
        <r>  0.0005  0.0102  0.1546 </r>
        <r>  0.0005  0.0102  0.1546 </r>
       </set>
       <set comment="band 25">
        <r>  0.0002  0.2610  0.0027 </r>
        <r>  0.0013  0.1052  0.0723 </r>
        <r>  0.0013  0.1052  0.0723 </r>
       </set>
       <set comment="band 26">
        <r>  0.0000  0.0287  0.0415 </r>
        <r>  0.0000  0.0033  0.1536 </r>
        <r>  0.0000  0.0033  0.1536 </r>
       </set>
       <set comment="band 27">
        <r>  0.0842  0.0528  0.0192 </r>
        <r>  0.0003  0.0874  0.1328 </r>
        <r>  0.0003  0.0874  0.1328 </r>
       </set>
       <set comment="band 28">
        <r>  0.0000  0.0083  0.1300 </r>
        <r>  0.0000  0.0268  0.1049 </r>
        <r>  0.0000  0.0268  0.1049 </r>
       </set>
       <set comment="band 29">
        <r>  0.0537  0.0275  0.0596 </r>
        <r>  0.0048  0.0188  0.0708 </r>
        <r>  0.0048  0.0188  0.0708 </r>
       </set>
       <set comment="band 30">
        <r>  0.0138  0.0672  0.0314 </r>
        <r>  0.0074  0.0227  0.2157 </r>
        <r>  0.0074  0.0227  0.2157 </r>
       </set>
      </set>
      <set comment="kpoint 109">
       <set comment="band 1">
        <r>  0.2112  0.0040  0.1752 </r>
        <r>  0.1485  0.0342  0.0013 </r>
        <r>  0.1485  0.0342  0.0013 </r>
       </set>
       <set comment="band 2">
        <r>  0.0104  0.1029  0.1950 </r>
        <r>  0.1496  0.0471  0.0021 </r>
        <r>  0.1496  0.0471  0.0021 </r>
       </set>
       <set comment="band 3">
        <r>  0.0000  0.0000  0.8139 </r>
        <r>  0.0000  0.0439  0.0095 </r>
        <r>  0.0000  0.0439  0.0095 </r>
       </set>
       <set comment="band 4">
        <r>  0.0000  0.0000  0.8139 </r>
        <r>  0.0000  0.0439  0.0095 </r>
        <r>  0.0000  0.0439  0.0095 </r>
       </set>
       <set comment="band 5">
        <r>  0.0000  0.0001  0.9031 </r>
        <r>  0.0000  0.0006  0.0098 </r>
        <r>  0.0000  0.0006  0.0098 </r>
       </set>
       <set comment="band 6">
        <r>  0.0000  0.0001  0.9031 </r>
        <r>  0.0000  0.0006  0.0098 </r>
        <r>  0.0000  0.0006  0.0098 </r>
       </set>
       <set comment="band 7">
        <r>  0.1539  0.0363  0.4652 </r>
        <r>  0.0309  0.0445  0.0196 </r>
        <r>  0.0309  0.0445  0.0196 </r>
       </set>
       <set comment="band 8">
        <r>  0.0000  0.2467  0.0034 </r>
        <r>  0.0000  0.1841  0.0446 </r>
        <r>  0.0000  0.1841  0.0446 </r>
       </set>
       <set comment="band 9">
        <r>  0.0000  0.2467  0.0034 </r>
        <r>  0.0000  0.1841  0.0446 </r>
        <r>  0.0000  0.1841  0.0446 </r>
       </set>
       <set comment="band 10">
        <r>  0.0276  0.0001  0.0259 </r>
        <r>  0.1605  0.0560  0.0277 </r>
        <r>  0.1605  0.0560  0.0277 </r>
       </set>
       <set comment="band 11">
        <r>  0.1821  0.0020  0.1479 </r>
        <r>  0.1850  0.0262  0.0204 </r>
        <r>  0.1850  0.0262  0.0204 </r>
       </set>
       <set comment="band 12">
        <r>  0.0000  0.0006  0.2109 </r>
        <r>  0.0000  0.1718  0.0431 </r>
        <r>  0.0000  0.1718  0.0431 </r>
       </set>
       <set comment="band 13">
        <r>  0.0000  0.0006  0.2109 </r>
        <r>  0.0000  0.1718  0.0431 </r>
        <r>  0.0000  0.1718  0.0431 </r>
       </set>
       <set comment="band 14">
        <r>  0.0000  0.1723  0.0142 </r>
        <r>  0.0000  0.0495  0.1351 </r>
        <r>  0.0000  0.0495  0.1351 </r>
       </set>
       <set comment="band 15">
        <r>  0.0000  0.1723  0.0142 </r>
        <r>  0.0000  0.0495  0.1351 </r>
        <r>  0.0000  0.0495  0.1351 </r>
       </set>
       <set comment="band 16">
        <r>  0.0476  0.0456  0.0005 </r>
        <r>  0.0419  0.1827  0.0511 </r>
        <r>  0.0419  0.1827  0.0511 </r>
       </set>
       <set comment="band 17">
        <r>  0.0740  0.0248  0.0027 </r>
        <r>  0.0280  0.2210  0.0577 </r>
        <r>  0.0280  0.2210  0.0577 </r>
       </set>
       <set comment="band 18">
        <r>  0.0000  0.0122  0.1255 </r>
        <r>  0.0000  0.0207  0.1645 </r>
        <r>  0.0000  0.0207  0.1645 </r>
       </set>
       <set comment="band 19">
        <r>  0.0000  0.0122  0.1255 </r>
        <r>  0.0000  0.0207  0.1645 </r>
        <r>  0.0000  0.0207  0.1645 </r>
       </set>
       <set comment="band 20">
        <r>  0.0000  0.0015  0.0383 </r>
        <r>  0.0000  0.1055  0.1522 </r>
        <r>  0.0000  0.1055  0.1522 </r>
       </set>
       <set comment="band 21">
        <r>  0.0000  0.0015  0.0383 </r>
        <r>  0.0000  0.1055  0.1522 </r>
        <r>  0.0000  0.1055  0.1522 </r>
       </set>
       <set comment="band 22">
        <r>  0.0128  0.1513  0.0145 </r>
        <r>  0.0012  0.0141  0.0913 </r>
        <r>  0.0012  0.0141  0.0913 </r>
       </set>
       <set comment="band 23">
        <r>  0.0000  0.0001  0.0525 </r>
        <r>  0.0000  0.1030  0.2080 </r>
        <r>  0.0000  0.1030  0.2080 </r>
       </set>
       <set comment="band 24">
        <r>  0.0000  0.0001  0.0525 </r>
        <r>  0.0000  0.1030  0.2080 </r>
        <r>  0.0000  0.1030  0.2080 </r>
       </set>
       <set comment="band 25">
        <r>  0.0336  0.2572  0.0077 </r>
        <r>  0.0562  0.0865  0.0694 </r>
        <r>  0.0562  0.0865  0.0694 </r>
       </set>
       <set comment="band 26">
        <r>  0.0063  0.0022  0.0121 </r>
        <r>  0.0151  0.0536  0.0596 </r>
        <r>  0.0151  0.0536  0.0596 </r>
       </set>
       <set comment="band 27">
        <r>  0.1236  0.1100  0.0854 </r>
        <r>  0.0185  0.0373  0.1929 </r>
        <r>  0.0185  0.0373  0.1929 </r>
       </set>
       <set comment="band 28">
        <r>  0.0000  0.0115  0.0058 </r>
        <r>  0.0000  0.0024  0.2093 </r>
        <r>  0.0000  0.0024  0.2093 </r>
       </set>
       <set comment="band 29">
        <r>  0.0000  0.0115  0.0058 </r>
        <r>  0.0000  0.0024  0.2093 </r>
        <r>  0.0000  0.0024  0.2093 </r>
       </set>
       <set comment="band 30">
        <r>  0.0000  0.0000  0.0000 </r>
        <r>  0.0000  0.0000  0.0000 </r>
        <r>  0.0000  0.0000  0.0000 </r>
       </set>
      </set>
      <set comment="kpoint 110">
       <set comment="band 1">
        <r>  0.1997  0.0032  0.2122 </r>
        <r>  0.1418  0.0351  0.0018 </r>
        <r>  0.1418  0.0351  0.0018 </r>
       </set>
       <set comment="band 2">
        <r>  0.0006  0.0692  0.3975 </r>
        <r>  0.1223  0.0311  0.0074 </r>
        <r>  0.1223  0.0311  0.0074 </r>
       </set>
       <set comment="band 3">
        <r>  0.0000  0.0003  0.8201 </r>
        <r>  0.0000  0.0415  0.0098 </r>
        <r>  0.0000  0.0415  0.0098 </r>
       </set>
       <set comment="band 4">
        <r>  0.0012  0.0434  0.5583 </r>
        <r>  0.0373  0.0567  0.0046 </r>
        <r>  0.0373  0.0567  0.0046 </r>
       </set>
       <set comment="band 5">
        <r>  0.0000  0.0003  0.8992 </r>
        <r>  0.0000  0.0020  0.0091 </r>
        <r>  0.0000  0.0020  0.0091 </r>
       </set>
       <set comment="band 6">
        <r>  0.1261  0.0009  0.6883 </r>
        <r>  0.0011  0.0291  0.0165 </r>
        <r>  0.0011  0.0291  0.0165 </r>
       </set>
       <set comment="band 7">
        <r>  0.0501  0.0298  0.6739 </r>
        <r>  0.0280  0.0226  0.0118 </r>
        <r>  0.0280  0.0226  0.0118 </r>
       </set>
       <set comment="band 8">
        <r>  0.0320  0.1988  0.0599 </r>
        <r>  0.0377  0.1464  0.0336 </r>
        <r>  0.0377  0.1464  0.0336 </r>
       </set>
       <set comment="band 9">
        <r>  0.0000  0.2346  0.0205 </r>
        <r>  0.0000  0.1866  0.0380 </r>
        <r>  0.0000  0.1866  0.0380 </r>
       </set>
       <set comment="band 10">
        <r>  0.0092  0.0030  0.1137 </r>
        <r>  0.1022  0.0787  0.0357 </r>
        <r>  0.1022  0.0787  0.0357 </r>
       </set>
       <set comment="band 11">
        <r>  0.0000  0.0074  0.1873 </r>
        <r>  0.0000  0.1726  0.0515 </r>
        <r>  0.0000  0.1726  0.0515 </r>
       </set>
       <set comment="band 12">
        <r>  0.1435  0.0200  0.1253 </r>
        <r>  0.1493  0.0645  0.0248 </r>
        <r>  0.1493  0.0645  0.0248 </r>
       </set>
       <set comment="band 13">
        <r>  0.0313  0.0107  0.1015 </r>
        <r>  0.0442  0.1527  0.0466 </r>
        <r>  0.0442  0.1527  0.0466 </r>
       </set>
       <set comment="band 14">
        <r>  0.0263  0.1322  0.0177 </r>
        <r>  0.0236  0.0849  0.1071 </r>
        <r>  0.0236  0.0849  0.1071 </r>
       </set>
       <set comment="band 15">
        <r>  0.0000  0.1695  0.0232 </r>
        <r>  0.0000  0.0393  0.1416 </r>
        <r>  0.0000  0.0393  0.1416 </r>
       </set>
       <set comment="band 16">
        <r>  0.0068  0.0696  0.0354 </r>
        <r>  0.0317  0.1448  0.0669 </r>
        <r>  0.0317  0.1448  0.0669 </r>
       </set>
       <set comment="band 17">
        <r>  0.0761  0.0606  0.0020 </r>
        <r>  0.0198  0.1852  0.0791 </r>
        <r>  0.0198  0.1852  0.0791 </r>
       </set>
       <set comment="band 18">
        <r>  0.0014  0.0076  0.0918 </r>
        <r>  0.0018  0.0595  0.1525 </r>
        <r>  0.0018  0.0595  0.1525 </r>
       </set>
       <set comment="band 19">
        <r>  0.0000  0.0167  0.1259 </r>
        <r>  0.0000  0.0291  0.1520 </r>
        <r>  0.0000  0.0291  0.1520 </r>
       </set>
       <set comment="band 20">
        <r>  0.0004  0.0150  0.0435 </r>
        <r>  0.0087  0.1068  0.1486 </r>
        <r>  0.0087  0.1068  0.1486 </r>
       </set>
       <set comment="band 21">
        <r>  0.0000  0.0024  0.0152 </r>
        <r>  0.0000  0.1029  0.1630 </r>
        <r>  0.0000  0.1029  0.1630 </r>
       </set>
       <set comment="band 22">
        <r>  0.0000  0.0005  0.0573 </r>
        <r>  0.0000  0.1047  0.2002 </r>
        <r>  0.0000  0.1047  0.2002 </r>
       </set>
       <set comment="band 23">
        <r>  0.0000  0.0755  0.0202 </r>
        <r>  0.0144  0.0766  0.1674 </r>
        <r>  0.0144  0.0766  0.1674 </r>
       </set>
       <set comment="band 24">
        <r>  0.0018  0.0802  0.0270 </r>
        <r>  0.0017  0.0061  0.1341 </r>
        <r>  0.0017  0.0061  0.1341 </r>
       </set>
       <set comment="band 25">
        <r>  0.0130  0.2843  0.0032 </r>
        <r>  0.0278  0.1108  0.0745 </r>
        <r>  0.0278  0.1108  0.0745 </r>
       </set>
       <set comment="band 26">
        <r>  0.0048  0.0184  0.0177 </r>
        <r>  0.0153  0.0688  0.0378 </r>
        <r>  0.0153  0.0688  0.0378 </r>
       </set>
       <set comment="band 27">
        <r>  0.0000  0.0203  0.0206 </r>
        <r>  0.0000  0.0036  0.1527 </r>
        <r>  0.0000  0.0036  0.1527 </r>
       </set>
       <set comment="band 28">
        <r>  0.1521  0.0440  0.0881 </r>
        <r>  0.0078  0.0362  0.2131 </r>
        <r>  0.0079  0.0362  0.2130 </r>
       </set>
       <set comment="band 29">
        <r>  0.0000  0.0008  0.0646 </r>
        <r>  0.0000  0.0076  0.0776 </r>
        <r>  0.0000  0.0076  0.0776 </r>
       </set>
       <set comment="band 30">
        <r>  0.0046  0.0206  0.0238 </r>
        <r>  0.0026  0.0039  0.2022 </r>
        <r>  0.0026  0.0039  0.2025 </r>
       </set>
      </set>
     </set>
    </set>
   </array>
  </projected>
 </calculation>
 <structure name="finalpos" >
  <crystal>
   <varray name="basis" >
    <v>       0.00000000       2.98029020       2.98029020 </v>
    <v>       2.98029020       0.00000000       2.98029020 </v>
    <v>       2.98029020       2.98029020       0.00000000 </v>
   </varray>
   <i name="volume">     52.94264795 </i>
   <varray name="rec_basis" >
    <v>      -0.16776890       0.16776890       0.16776890 </v>
    <v>       0.16776890      -0.16776890       0.16776890 </v>
    <v>       0.16776890       0.16776890      -0.16776890 </v>
   </varray>
  </crystal>
  <varray name="positions" >
   <v>       0.00000000       0.00000000       0.00000000 </v>
   <v>       0.25000000       0.25000000       0.25000000 </v>
   <v>       0.75000000       0.75000000       0.75000000 </v>
  </varray>
 </structure>
</modeling>
