a= 3.924654726
 running on    2 total cores
 distrk:  each k-point on    2 cores,    1 groups
 distr:  one band on    1 cores,    2 groups
 using from now: INCAR     
 vasp.5.3.2 13Sep12 (build Jun 30 2016 14:08:18) complex                        
  
 POSCAR found type information on POSCAR  Na
 POSCAR found :  1 types and       2 ions
 LDA part: xc-table for Ceperly-Alder, standard interpolation
 POSCAR, INCAR and KPOINTS ok, starting setup
 WARNING: small aliasing (wrap around) errors must be expected
 FFT: planning ...
 WAVECAR not read
 entering main loop
       N       E                     dE             d eps       ncg     rms          rms(c)
DAV:   1    -0.263833373566E+01   -0.26383E+01   -0.28837E+02   474   0.490E+01
DAV:   2    -0.287832100211E+01   -0.23999E+00   -0.24021E+00   588   0.721E+00
DAV:   3    -0.287954392672E+01   -0.12229E-02   -0.12230E-02   522   0.457E-01
DAV:   4    -0.287954789711E+01   -0.39704E-05   -0.39703E-05   552   0.211E-02
DAV:   5    -0.287954790688E+01   -0.97716E-08   -0.98688E-08   516   0.702E-04    0.305E-01
DAV:   6    -0.287695616025E+01    0.25917E-02   -0.69845E-05   462   0.370E-02    0.201E-01
DAV:   7    -0.287527010995E+01    0.16861E-02   -0.20041E-04   480   0.620E-02    0.124E-02
DAV:   8    -0.287521891715E+01    0.51193E-04   -0.11365E-05   432   0.170E-02    0.201E-03
DAV:   9    -0.287521844515E+01    0.47200E-06   -0.43827E-07   516   0.363E-03
   1 F= -.28752184E+01 E0= -.28745189E+01  d E =-.209877E-02
 writing wavefunctions

 ----------------------------------------------------------------------------- 
|                                                                             |
|           W    W    AA    RRRRR   N    N  II  N    N   GGGG   !!!           |
|           W    W   A  A   R    R  NN   N  II  NN   N  G    G  !!!           |
|           W    W  A    A  R    R  N N  N  II  N N  N  G       !!!           |
|           W WW W  AAAAAA  RRRRR   N  N N  II  N  N N  G  GGG   !            |
|           WW  WW  A    A  R   R   N   NN  II  N   NN  G    G                |
|           W    W  A    A  R    R  N    N  II  N    N   GGGG   !!!           |
|                                                                             |
|      The partial DOS and the PROCAR file are not evaluated for NPAR/=1      |
|      please rerun with NPAR=1                                               |
|                                                                             |
 ----------------------------------------------------------------------------- 

a= 3.965115084
 running on    2 total cores
 distrk:  each k-point on    2 cores,    1 groups
 distr:  one band on    1 cores,    2 groups
 using from now: INCAR     
 vasp.5.3.2 13Sep12 (build Jun 30 2016 14:08:18) complex                        
  
 POSCAR found type information on POSCAR  Na
 POSCAR found :  1 types and       2 ions
 LDA part: xc-table for Ceperly-Alder, standard interpolation
 found WAVECAR, reading the header
 WAVECAR: different cutoff or change in lattice found
 POSCAR, INCAR and KPOINTS ok, starting setup
 WARNING: small aliasing (wrap around) errors must be expected
 FFT: planning ...
 reading WAVECAR
 the WAVECAR file was read sucessfully
 initial charge from wavefunction
 entering main loop
       N       E                     dE             d eps       ncg     rms          rms(c)
DAV:   1    -0.288750216203E+01   -0.28875E+01   -0.34938E-02   426   0.117E+00    0.202E-02
DAV:   2    -0.288750803545E+01   -0.58734E-05   -0.94251E-05   480   0.465E-02    0.136E-02
DAV:   3    -0.288750568530E+01    0.23502E-05   -0.34121E-06   450   0.106E-02    0.171E-03
DAV:   4    -0.288750555676E+01    0.12854E-06   -0.54310E-08   252   0.141E-03
   1 F= -.28875056E+01 E0= -.28868326E+01  d E =-.201882E-02
 writing wavefunctions

 ----------------------------------------------------------------------------- 
|                                                                             |
|           W    W    AA    RRRRR   N    N  II  N    N   GGGG   !!!           |
|           W    W   A  A   R    R  NN   N  II  NN   N  G    G  !!!           |
|           W    W  A    A  R    R  N N  N  II  N N  N  G       !!!           |
|           W WW W  AAAAAA  RRRRR   N  N N  II  N  N N  G  GGG   !            |
|           WW  WW  A    A  R   R   N   NN  II  N   NN  G    G                |
|           W    W  A    A  R    R  N    N  II  N    N   GGGG   !!!           |
|                                                                             |
|      The partial DOS and the PROCAR file are not evaluated for NPAR/=1      |
|      please rerun with NPAR=1                                               |
|                                                                             |
 ----------------------------------------------------------------------------- 

a= 4.005575442
 running on    2 total cores
 distrk:  each k-point on    2 cores,    1 groups
 distr:  one band on    1 cores,    2 groups
 using from now: INCAR     
 vasp.5.3.2 13Sep12 (build Jun 30 2016 14:08:18) complex                        
  
 POSCAR found type information on POSCAR  Na
 POSCAR found :  1 types and       2 ions
 LDA part: xc-table for Ceperly-Alder, standard interpolation
 found WAVECAR, reading the header
 WAVECAR: different cutoff or change in lattice found
 POSCAR, INCAR and KPOINTS ok, starting setup
 WARNING: small aliasing (wrap around) errors must be expected
 FFT: planning ...
 reading WAVECAR
 the WAVECAR file was read sucessfully
 initial charge from wavefunction
 entering main loop
       N       E                     dE             d eps       ncg     rms          rms(c)
DAV:   1    -0.289564535066E+01   -0.28956E+01   -0.34934E-02   438   0.113E+00    0.200E-02
DAV:   2    -0.289565170295E+01   -0.63523E-05   -0.88908E-05   498   0.443E-02    0.134E-02
DAV:   3    -0.289564998078E+01    0.17222E-05   -0.33835E-06   450   0.106E-02    0.161E-03
DAV:   4    -0.289564988309E+01    0.97688E-07   -0.47121E-08   258   0.131E-03
   1 F= -.28956499E+01 E0= -.28950171E+01  d E =-.189841E-02
 writing wavefunctions

 ----------------------------------------------------------------------------- 
|                                                                             |
|           W    W    AA    RRRRR   N    N  II  N    N   GGGG   !!!           |
|           W    W   A  A   R    R  NN   N  II  NN   N  G    G  !!!           |
|           W    W  A    A  R    R  N N  N  II  N N  N  G       !!!           |
|           W WW W  AAAAAA  RRRRR   N  N N  II  N  N N  G  GGG   !            |
|           WW  WW  A    A  R   R   N   NN  II  N   NN  G    G                |
|           W    W  A    A  R    R  N    N  II  N    N   GGGG   !!!           |
|                                                                             |
|      The partial DOS and the PROCAR file are not evaluated for NPAR/=1      |
|      please rerun with NPAR=1                                               |
|                                                                             |
 ----------------------------------------------------------------------------- 

a= 4.0460358
 running on    2 total cores
 distrk:  each k-point on    2 cores,    1 groups
 distr:  one band on    1 cores,    2 groups
 using from now: INCAR     
 vasp.5.3.2 13Sep12 (build Jun 30 2016 14:08:18) complex                        
  
 POSCAR found type information on POSCAR  Na
 POSCAR found :  1 types and       2 ions
 LDA part: xc-table for Ceperly-Alder, standard interpolation
 found WAVECAR, reading the header
 WAVECAR: different cutoff or change in lattice found
 POSCAR, INCAR and KPOINTS ok, starting setup
 WARNING: small aliasing (wrap around) errors must be expected
 FFT: planning ...
 reading WAVECAR
 the WAVECAR file was read sucessfully
 initial charge from wavefunction
 entering main loop
       N       E                     dE             d eps       ncg     rms          rms(c)
DAV:   1    -0.289924667518E+01   -0.28992E+01   -0.27667E-02   432   0.983E-01    0.196E-02
DAV:   2    -0.289925018679E+01   -0.35116E-05   -0.74577E-05   474   0.407E-02    0.131E-02
DAV:   3    -0.289924738132E+01    0.28055E-05   -0.33596E-06   456   0.104E-02    0.147E-03
DAV:   4    -0.289924725132E+01    0.12999E-06   -0.40904E-08   258   0.122E-03
   1 F= -.28992473E+01 E0= -.28986329E+01  d E =-.184316E-02
 writing wavefunctions

 ----------------------------------------------------------------------------- 
|                                                                             |
|           W    W    AA    RRRRR   N    N  II  N    N   GGGG   !!!           |
|           W    W   A  A   R    R  NN   N  II  NN   N  G    G  !!!           |
|           W    W  A    A  R    R  N N  N  II  N N  N  G       !!!           |
|           W WW W  AAAAAA  RRRRR   N  N N  II  N  N N  G  GGG   !            |
|           WW  WW  A    A  R   R   N   NN  II  N   NN  G    G                |
|           W    W  A    A  R    R  N    N  II  N    N   GGGG   !!!           |
|                                                                             |
|      The partial DOS and the PROCAR file are not evaluated for NPAR/=1      |
|      please rerun with NPAR=1                                               |
|                                                                             |
 ----------------------------------------------------------------------------- 

a= 4.086496158
 running on    2 total cores
 distrk:  each k-point on    2 cores,    1 groups
 distr:  one band on    1 cores,    2 groups
 using from now: INCAR     
 vasp.5.3.2 13Sep12 (build Jun 30 2016 14:08:18) complex                        
  
 POSCAR found type information on POSCAR  Na
 POSCAR found :  1 types and       2 ions
 LDA part: xc-table for Ceperly-Alder, standard interpolation
 found WAVECAR, reading the header
 WAVECAR: different cutoff or change in lattice found
 POSCAR, INCAR and KPOINTS ok, starting setup
 WARNING: small aliasing (wrap around) errors must be expected
 FFT: planning ...
 reading WAVECAR
 the WAVECAR file was read sucessfully
 initial charge from wavefunction
 entering main loop
       N       E                     dE             d eps       ncg     rms          rms(c)
DAV:   1    -0.289966990263E+01   -0.28997E+01   -0.31105E-02   432   0.106E+00    0.193E-02
DAV:   2    -0.289967811515E+01   -0.82125E-05   -0.11223E-04   474   0.475E-02    0.131E-02
DAV:   3    -0.289967593842E+01    0.21767E-05   -0.35093E-06   456   0.107E-02    0.182E-03
DAV:   4    -0.289967581538E+01    0.12304E-06   -0.58610E-08   240   0.147E-03
   1 F= -.28996758E+01 E0= -.28990975E+01  d E =-.173496E-02
 writing wavefunctions

 ----------------------------------------------------------------------------- 
|                                                                             |
|           W    W    AA    RRRRR   N    N  II  N    N   GGGG   !!!           |
|           W    W   A  A   R    R  NN   N  II  NN   N  G    G  !!!           |
|           W    W  A    A  R    R  N N  N  II  N N  N  G       !!!           |
|           W WW W  AAAAAA  RRRRR   N  N N  II  N  N N  G  GGG   !            |
|           WW  WW  A    A  R   R   N   NN  II  N   NN  G    G                |
|           W    W  A    A  R    R  N    N  II  N    N   GGGG   !!!           |
|                                                                             |
|      The partial DOS and the PROCAR file are not evaluated for NPAR/=1      |
|      please rerun with NPAR=1                                               |
|                                                                             |
 ----------------------------------------------------------------------------- 

a= 4.126956516
 running on    2 total cores
 distrk:  each k-point on    2 cores,    1 groups
 distr:  one band on    1 cores,    2 groups
 using from now: INCAR     
 vasp.5.3.2 13Sep12 (build Jun 30 2016 14:08:18) complex                        
  
 POSCAR found type information on POSCAR  Na
 POSCAR found :  1 types and       2 ions
 LDA part: xc-table for Ceperly-Alder, standard interpolation
 found WAVECAR, reading the header
 WAVECAR: different cutoff or change in lattice found
 POSCAR, INCAR and KPOINTS ok, starting setup
 WARNING: small aliasing (wrap around) errors must be expected
 FFT: planning ...
 reading WAVECAR
 the WAVECAR file was read sucessfully
 initial charge from wavefunction
 entering main loop
       N       E                     dE             d eps       ncg     rms          rms(c)
DAV:   1    -0.289615976157E+01   -0.28962E+01   -0.23921E-02   426   0.887E-01    0.190E-02
DAV:   2    -0.289616392918E+01   -0.41676E-05   -0.81051E-05   480   0.407E-02    0.128E-02
DAV:   3    -0.289616099977E+01    0.29294E-05   -0.32319E-06   450   0.102E-02    0.152E-03
DAV:   4    -0.289616086298E+01    0.13679E-06   -0.42179E-08   228   0.124E-03
   1 F= -.28961609E+01 E0= -.28956226E+01  d E =-.161466E-02
 writing wavefunctions

 ----------------------------------------------------------------------------- 
|                                                                             |
|           W    W    AA    RRRRR   N    N  II  N    N   GGGG   !!!           |
|           W    W   A  A   R    R  NN   N  II  NN   N  G    G  !!!           |
|           W    W  A    A  R    R  N N  N  II  N N  N  G       !!!           |
|           W WW W  AAAAAA  RRRRR   N  N N  II  N  N N  G  GGG   !            |
|           WW  WW  A    A  R   R   N   NN  II  N   NN  G    G                |
|           W    W  A    A  R    R  N    N  II  N    N   GGGG   !!!           |
|                                                                             |
|      The partial DOS and the PROCAR file are not evaluated for NPAR/=1      |
|      please rerun with NPAR=1                                               |
|                                                                             |
 ----------------------------------------------------------------------------- 

a= 4.167416874
 running on    2 total cores
 distrk:  each k-point on    2 cores,    1 groups
 distr:  one band on    1 cores,    2 groups
 using from now: INCAR     
 vasp.5.3.2 13Sep12 (build Jun 30 2016 14:08:18) complex                        
  
 POSCAR found type information on POSCAR  Na
 POSCAR found :  1 types and       2 ions
 LDA part: xc-table for Ceperly-Alder, standard interpolation
 found WAVECAR, reading the header
 WAVECAR: different cutoff or change in lattice found
 POSCAR, INCAR and KPOINTS ok, starting setup
 WARNING: small aliasing (wrap around) errors must be expected
 FFT: planning ...
 reading WAVECAR
 the WAVECAR file was read sucessfully
 initial charge from wavefunction
 entering main loop
       N       E                     dE             d eps       ncg     rms          rms(c)
DAV:   1    -0.289000672476E+01   -0.28900E+01   -0.27345E-02   426   0.993E-01    0.188E-02
DAV:   2    -0.289001382854E+01   -0.71038E-05   -0.10308E-04   498   0.467E-02    0.128E-02
DAV:   3    -0.289001128263E+01    0.25459E-05   -0.33018E-06   438   0.104E-02    0.178E-03
DAV:   4    -0.289001114602E+01    0.13661E-06   -0.55613E-08   222   0.146E-03
   1 F= -.28900111E+01 E0= -.28895142E+01  d E =-.149083E-02
 writing wavefunctions

 ----------------------------------------------------------------------------- 
|                                                                             |
|           W    W    AA    RRRRR   N    N  II  N    N   GGGG   !!!           |
|           W    W   A  A   R    R  NN   N  II  NN   N  G    G  !!!           |
|           W    W  A    A  R    R  N N  N  II  N N  N  G       !!!           |
|           W WW W  AAAAAA  RRRRR   N  N N  II  N  N N  G  GGG   !            |
|           WW  WW  A    A  R   R   N   NN  II  N   NN  G    G                |
|           W    W  A    A  R    R  N    N  II  N    N   GGGG   !!!           |
|                                                                             |
|      The partial DOS and the PROCAR file are not evaluated for NPAR/=1      |
|      please rerun with NPAR=1                                               |
|                                                                             |
 ----------------------------------------------------------------------------- 

a= 4.207877232
 running on    2 total cores
 distrk:  each k-point on    2 cores,    1 groups
 distr:  one band on    1 cores,    2 groups
 using from now: INCAR     
 vasp.5.3.2 13Sep12 (build Jun 30 2016 14:08:18) complex                        
  
 POSCAR found type information on POSCAR  Na
 POSCAR found :  1 types and       2 ions
 LDA part: xc-table for Ceperly-Alder, standard interpolation
 found WAVECAR, reading the header
 WAVECAR: different cutoff or change in lattice found
 POSCAR, INCAR and KPOINTS ok, starting setup
 WARNING: small aliasing (wrap around) errors must be expected
 FFT: planning ...
 reading WAVECAR
 the WAVECAR file was read sucessfully
 initial charge from wavefunction
 entering main loop
       N       E                     dE             d eps       ncg     rms          rms(c)
DAV:   1    -0.288054205782E+01   -0.28805E+01   -0.21424E-02   426   0.840E-01    0.185E-02
DAV:   2    -0.288054578230E+01   -0.37245E-05   -0.74561E-05   498   0.409E-02    0.125E-02
DAV:   3    -0.288054268090E+01    0.31014E-05   -0.31209E-06   438   0.100E-02    0.147E-03
DAV:   4    -0.288054254141E+01    0.13949E-06   -0.37199E-08   252   0.116E-03
   1 F= -.28805425E+01 E0= -.28800833E+01  d E =-.137765E-02
 writing wavefunctions

 ----------------------------------------------------------------------------- 
|                                                                             |
|           W    W    AA    RRRRR   N    N  II  N    N   GGGG   !!!           |
|           W    W   A  A   R    R  NN   N  II  NN   N  G    G  !!!           |
|           W    W  A    A  R    R  N N  N  II  N N  N  G       !!!           |
|           W WW W  AAAAAA  RRRRR   N  N N  II  N  N N  G  GGG   !            |
|           WW  WW  A    A  R   R   N   NN  II  N   NN  G    G                |
|           W    W  A    A  R    R  N    N  II  N    N   GGGG   !!!           |
|                                                                             |
|      The partial DOS and the PROCAR file are not evaluated for NPAR/=1      |
|      please rerun with NPAR=1                                               |
|                                                                             |
 ----------------------------------------------------------------------------- 


------------------------------------------------------------
Sender: LSF System <lsfadmin@alps4-44>
Subject: Job 407815: <vasp> in cluster <cluster5> Done

Job <vasp> was submitted from host <alps6> by user <s11gyg07> in cluster <cluster5>.
Job was executed on host(s) <2*alps4-44>, in queue <test>, as user <s11gyg07> in cluster <cluster5>.
</home/s11gyg07> was used as the home directory.
</home/s11gyg07/Hands-on-1016/Na/2-e-v> was used as the working directory.
Started at Mon Oct 23 18:49:33 2017
Results reported on Mon Oct 23 18:49:44 2017

Your job looked like:

------------------------------------------------------------
# LSBATCH: User input
#!/bin/sh
#BSUB -a mvapich
#BSUB -n 2 
#BSUB -J vasp
#BSUB -o %J.out
#BSUB -e %J.err
#BSUB -q  test              # depend on -n
#BSUB -R 'span[ptile=48]' # uncomment when multi-nodes
#BSUB -R "ipathavail==0"  # uncomment when multi-nodes

source /pkg/mpi/intel/12/mvapich2-1.8/bin/mpivars.sh

VASP=/home/$USER/bin/vasp_ntu

for a in 3.924654726 3.965115084 4.005575442 4.0460358 4.086496158 4.126956516 4.167416874 4.207877232

do
echo "a= $a"

cat >POSCAR <<!
Na
$a
1.0000000000         0.0000000000         0.0000000000
0.0000000000         1.0000000000         0.0000000000
0.0000000000         0.0000000000         1.0000000000
Na
2
Direct
0.000000000         0.000000000         0.000000000
0.500000000         0.500000000         0.500000000
!
mpiexec -np ${LSB_DJOB_NUMPROC} ${VASP}

#E=`grep F OSZICAR| awk '{printf $5}'`


E=`grep "energy without entropy" OUTCAR |tail -1|awk '{printf "%12.6f\n",$5}'`
echo $a $E >> ev.dat
done

------------------------------------------------------------

Successfully completed.

Resource usage summary:

    CPU time :                                   14.96 sec.
    Total Requested Memory :                     -
    Delta Memory :                               -

The output (if any) is above this job summary.



PS:

Read file <407815.err> for stderr output of this job.

