bcc Na                                  
   4.20787723200000     
     1.000000    0.000000    0.000000
     0.000000    1.000000    0.000000
     0.000000    0.000000    1.000000
   Na
     2
Direct
  0.000000  0.000000  0.000000
  0.500000  0.500000  0.500000
 
   20   20   20
  1.0941      1.0085     0.87116     0.91103      1.2204      1.6563      1.9857      2.1255      2.1353      2.1038    
  2.0878      2.1038      2.1353      2.1255      1.9857      1.6563      1.2204     0.91103     0.87116      1.0085    
  1.0085     0.94583     0.86162     0.95083      1.2799      1.7045      2.0112      2.1357      2.1389      2.1060    
  2.0900      2.1060      2.1389      2.1357      2.0112      1.7045      1.2799     0.95083     0.86162     0.94583    
 0.87116     0.86162     0.89820      1.0926      1.4507      1.8304      2.0741      2.1589      2.1468      2.1116    
  2.0960      2.1116      2.1468      2.1589      2.0741      1.8304      1.4507      1.0926     0.89820     0.86162    
 0.91103     0.95083      1.0926      1.3587      1.6971      1.9849      2.1420      2.1783      2.1516      2.1175    
  2.1041      2.1175      2.1516      2.1783      2.1420      1.9849      1.6971      1.3587      1.0926     0.95083    
  1.2204      1.2799      1.4507      1.6971      1.9427      2.1127      2.1834      2.1796      2.1471      2.1204    
  2.1112      2.1204      2.1471      2.1796      2.1834      2.1127      1.9427      1.6971      1.4507      1.2799    
  1.6563      1.7045      1.8304      1.9849      2.1127      2.1794      2.1861      2.1604      2.1329      2.1179    
  2.1140      2.1179      2.1329      2.1604      2.1861      2.1794      2.1127      1.9849      1.8304      1.7045    
  1.9857      2.0112      2.0741      2.1420      2.1834      2.1861      2.1613      2.1319      2.1147      2.1107    
  2.1112      2.1107      2.1147      2.1319      2.1613      2.1861      2.1834      2.1420      2.0741      2.0112    
  2.1255      2.1357      2.1589      2.1783      2.1796      2.1604      2.1319      2.1093      2.1005      2.1020    
  2.1041      2.1020      2.1005      2.1093      2.1319      2.1604      2.1796      2.1783      2.1589      2.1357    
  2.1353      2.1389      2.1468      2.1516      2.1471      2.1329      2.1147      2.1005      2.0947      2.0950    
  2.0960      2.0950      2.0947      2.1005      2.1147      2.1329      2.1471      2.1516      2.1468      2.1389    
  2.1038      2.1060      2.1116      2.1175      2.1204      2.1179      2.1107      2.1020      2.0950      2.0911    
  2.0900      2.0911      2.0950      2.1020      2.1107      2.1179      2.1204      2.1175      2.1116      2.1060    
  2.0878      2.0900      2.0960      2.1041      2.1112      2.1140      2.1112      2.1041      2.0960      2.0900    
  2.0878      2.0900      2.0960      2.1041      2.1112      2.1140      2.1112      2.1041      2.0960      2.0900    
  2.1038      2.1060      2.1116      2.1175      2.1204      2.1179      2.1107      2.1020      2.0950      2.0911    
  2.0900      2.0911      2.0950      2.1020      2.1107      2.1179      2.1204      2.1175      2.1116      2.1060    
  2.1353      2.1389      2.1468      2.1516      2.1471      2.1329      2.1147      2.1005      2.0947      2.0950    
  2.0960      2.0950      2.0947      2.1005      2.1147      2.1329      2.1471      2.1516      2.1468      2.1389    
  2.1255      2.1357      2.1589      2.1783      2.1796      2.1604      2.1319      2.1093      2.1005      2.1020    
  2.1041      2.1020      2.1005      2.1093      2.1319      2.1604      2.1796      2.1783      2.1589      2.1357    
  1.9857      2.0112      2.0741      2.1420      2.1834      2.1861      2.1613      2.1319      2.1147      2.1107    
  2.1112      2.1107      2.1147      2.1319      2.1613      2.1861      2.1834      2.1420      2.0741      2.0112    
  1.6563      1.7045      1.8304      1.9849      2.1127      2.1794      2.1861      2.1604      2.1329      2.1179    
  2.1140      2.1179      2.1329      2.1604      2.1861      2.1794      2.1127      1.9849      1.8304      1.7045    
  1.2204      1.2799      1.4507      1.6971      1.9427      2.1127      2.1834      2.1796      2.1471      2.1204    
  2.1112      2.1204      2.1471      2.1796      2.1834      2.1127      1.9427      1.6971      1.4507      1.2799    
 0.91103     0.95083      1.0926      1.3587      1.6971      1.9849      2.1420      2.1783      2.1516      2.1175    
  2.1041      2.1175      2.1516      2.1783      2.1420      1.9849      1.6971      1.3587      1.0926     0.95083    
 0.87116     0.86162     0.89820      1.0926      1.4507      1.8304      2.0741      2.1589      2.1468      2.1116    
  2.0960      2.1116      2.1468      2.1589      2.0741      1.8304      1.4507      1.0926     0.89820     0.86162    
  1.0085     0.94583     0.86162     0.95083      1.2799      1.7045      2.0112      2.1357      2.1389      2.1060    
  2.0900      2.1060      2.1389      2.1357      2.0112      1.7045      1.2799     0.95083     0.86162     0.94583    
  1.0085     0.94583     0.86162     0.95083      1.2799      1.7045      2.0112      2.1357      2.1389      2.1060    
  2.0900      2.1060      2.1389      2.1357      2.0112      1.7045      1.2799     0.95083     0.86162     0.94583    
 0.94583     0.90326     0.86516     0.99572      1.3385      1.7492      2.0338      2.1438      2.1412      2.1071    
  2.0911      2.1071      2.1412      2.1438      2.0338      1.7492      1.3385     0.99572     0.86516     0.90326    
 0.86162     0.86516     0.93039      1.1467      1.5048      1.8656      2.0892      2.1622      2.1459      2.1103    
  2.0950      2.1103      2.1459      2.1622      2.0892      1.8656      1.5048      1.1467     0.93039     0.86516    
 0.95083     0.99572      1.1467      1.4141      1.7397      2.0071      2.1485      2.1770      2.1484      2.1150    
  2.1020      2.1150      2.1484      2.1770      2.1485      2.0071      1.7397      1.4141      1.1467     0.99572    
  1.2799      1.3385      1.5048      1.7397      1.9680      2.1225      2.1836      2.1766      2.1447      2.1194    
  2.1107      2.1194      2.1447      2.1766      2.1836      2.1225      1.9680      1.7397      1.5048      1.3385    
  1.7045      1.7492      1.8656      2.0071      2.1225      2.1808      2.1843      2.1594      2.1343      2.1212    
  2.1179      2.1212      2.1343      2.1594      2.1843      2.1808      2.1225      2.0071      1.8656      1.7492    
  2.0112      2.0338      2.0892      2.1485      2.1836      2.1843      2.1612      2.1353      2.1214      2.1194    
  2.1204      2.1194      2.1214      2.1353      2.1612      2.1843      2.1836      2.1485      2.0892      2.0338    
  2.1357      2.1438      2.1622      2.1770      2.1766      2.1594      2.1353      2.1173      2.1119      2.1150    
  2.1175      2.1150      2.1119      2.1173      2.1353      2.1594      2.1766      2.1770      2.1622      2.1438    
  2.1389      2.1412      2.1459      2.1484      2.1447      2.1343      2.1214      2.1119      2.1088      2.1103    
  2.1116      2.1103      2.1088      2.1119      2.1214      2.1343      2.1447      2.1484      2.1459      2.1412    
  2.1060      2.1071      2.1103      2.1150      2.1194      2.1212      2.1194      2.1150      2.1103      2.1071    
  2.1060      2.1071      2.1103      2.1150      2.1194      2.1212      2.1194      2.1150      2.1103      2.1071    
  2.0900      2.0911      2.0950      2.1020      2.1107      2.1179      2.1204      2.1175      2.1116      2.1060    
  2.1038      2.1060      2.1116      2.1175      2.1204      2.1179      2.1107      2.1020      2.0950      2.0911    
  2.1060      2.1071      2.1103      2.1150      2.1194      2.1212      2.1194      2.1150      2.1103      2.1071    
  2.1060      2.1071      2.1103      2.1150      2.1194      2.1212      2.1194      2.1150      2.1103      2.1071    
  2.1389      2.1412      2.1459      2.1484      2.1447      2.1343      2.1214      2.1119      2.1088      2.1103    
  2.1116      2.1103      2.1088      2.1119      2.1214      2.1343      2.1447      2.1484      2.1459      2.1412    
  2.1357      2.1438      2.1622      2.1770      2.1766      2.1594      2.1353      2.1173      2.1119      2.1150    
  2.1175      2.1150      2.1119      2.1173      2.1353      2.1594      2.1766      2.1770      2.1622      2.1438    
  2.0112      2.0338      2.0892      2.1485      2.1836      2.1843      2.1612      2.1353      2.1214      2.1194    
  2.1204      2.1194      2.1214      2.1353      2.1612      2.1843      2.1836      2.1485      2.0892      2.0338    
  1.7045      1.7492      1.8656      2.0071      2.1225      2.1808      2.1843      2.1594      2.1343      2.1212    
  2.1179      2.1212      2.1343      2.1594      2.1843      2.1808      2.1225      2.0071      1.8656      1.7492    
  1.2799      1.3385      1.5048      1.7397      1.9680      2.1225      2.1836      2.1766      2.1447      2.1194    
  2.1107      2.1194      2.1447      2.1766      2.1836      2.1225      1.9680      1.7397      1.5048      1.3385    
 0.95083     0.99572      1.1467      1.4141      1.7397      2.0071      2.1485      2.1770      2.1484      2.1150    
  2.1020      2.1150      2.1484      2.1770      2.1485      2.0071      1.7397      1.4141      1.1467     0.99572    
 0.86162     0.86516     0.93039      1.1467      1.5048      1.8656      2.0892      2.1622      2.1459      2.1103    
  2.0950      2.1103      2.1459      2.1622      2.0892      1.8656      1.5048      1.1467     0.93039     0.86516    
 0.94583     0.90326     0.86516     0.99572      1.3385      1.7492      2.0338      2.1438      2.1412      2.1071    
  2.0911      2.1071      2.1412      2.1438      2.0338      1.7492      1.3385     0.99572     0.86516     0.90326    
 0.87116     0.86162     0.89820      1.0926      1.4507      1.8304      2.0741      2.1589      2.1468      2.1116    
  2.0960      2.1116      2.1468      2.1589      2.0741      1.8304      1.4507      1.0926     0.89820     0.86162    
 0.86162     0.86516     0.93039      1.1467      1.5048      1.8656      2.0892      2.1622      2.1459      2.1103    
  2.0950      2.1103      2.1459      2.1622      2.0892      1.8656      1.5048      1.1467     0.93039     0.86516    
 0.89820     0.93039      1.0560      1.3114      1.6535      1.9559      2.1259      2.1693      2.1440      2.1088    
  2.0947      2.1088      2.1440      2.1693      2.1259      1.9559      1.6535      1.3114      1.0560     0.93039    
  1.0926      1.1467      1.3114      1.5697      1.8519      2.0632      2.1641      2.1740      2.1425      2.1119    
  2.1005      2.1119      2.1425      2.1740      2.1641      2.0632      1.8519      1.5697      1.3114      1.1467    
  1.4507      1.5048      1.6535      1.8519      2.0326      2.1469      2.1847      2.1710      2.1420      2.1214    
  2.1147      2.1214      2.1420      2.1710      2.1847      2.1469      2.0326      1.8519      1.6535      1.5048    
  1.8304      1.8656      1.9559      2.0632      2.1469      2.1848      2.1817      2.1603      2.1420      2.1343    
  2.1329      2.1343      2.1420      2.1603      2.1817      2.1848      2.1469      2.0632      1.9559      1.8656    
  2.0741      2.0892      2.1259      2.1641      2.1847      2.1817      2.1643      2.1478      2.1420      2.1447    
  2.1471      2.1447      2.1420      2.1478      2.1643      2.1817      2.1847      2.1641      2.1259      2.0892    
  2.1589      2.1622      2.1693      2.1740      2.1710      2.1603      2.1478      2.1409      2.1425      2.1484    
  2.1516      2.1484      2.1425      2.1409      2.1478      2.1603      2.1710      2.1740      2.1693      2.1622    
  2.1468      2.1459      2.1440      2.1425      2.1420      2.1420      2.1420      2.1425      2.1440      2.1459    
  2.1468      2.1459      2.1440      2.1425      2.1420      2.1420      2.1420      2.1425      2.1440      2.1459    
  2.1116      2.1103      2.1088      2.1119      2.1214      2.1343      2.1447      2.1484      2.1459      2.1412    
  2.1389      2.1412      2.1459      2.1484      2.1447      2.1343      2.1214      2.1119      2.1088      2.1103    
  2.0960      2.0950      2.0947      2.1005      2.1147      2.1329      2.1471      2.1516      2.1468      2.1389    
  2.1353      2.1389      2.1468      2.1516      2.1471      2.1329      2.1147      2.1005      2.0947      2.0950    
  2.1116      2.1103      2.1088      2.1119      2.1214      2.1343      2.1447      2.1484      2.1459      2.1412    
  2.1389      2.1412      2.1459      2.1484      2.1447      2.1343      2.1214      2.1119      2.1088      2.1103    
  2.1468      2.1459      2.1440      2.1425      2.1420      2.1420      2.1420      2.1425      2.1440      2.1459    
  2.1468      2.1459      2.1440      2.1425      2.1420      2.1420      2.1420      2.1425      2.1440      2.1459    
  2.1589      2.1622      2.1693      2.1740      2.1710      2.1603      2.1478      2.1409      2.1425      2.1484    
  2.1516      2.1484      2.1425      2.1409      2.1478      2.1603      2.1710      2.1740      2.1693      2.1622    
  2.0741      2.0892      2.1259      2.1641      2.1847      2.1817      2.1643      2.1478      2.1420      2.1447    
  2.1471      2.1447      2.1420      2.1478      2.1643      2.1817      2.1847      2.1641      2.1259      2.0892    
  1.8304      1.8656      1.9559      2.0632      2.1469      2.1848      2.1817      2.1603      2.1420      2.1343    
  2.1329      2.1343      2.1420      2.1603      2.1817      2.1848      2.1469      2.0632      1.9559      1.8656    
  1.4507      1.5048      1.6535      1.8519      2.0326      2.1469      2.1847      2.1710      2.1420      2.1214    
  2.1147      2.1214      2.1420      2.1710      2.1847      2.1469      2.0326      1.8519      1.6535      1.5048    
  1.0926      1.1467      1.3114      1.5697      1.8519      2.0632      2.1641      2.1740      2.1425      2.1119    
  2.1005      2.1119      2.1425      2.1740      2.1641      2.0632      1.8519      1.5697      1.3114      1.1467    
 0.89820     0.93039      1.0560      1.3114      1.6535      1.9559      2.1259      2.1693      2.1440      2.1088    
  2.0947      2.1088      2.1440      2.1693      2.1259      1.9559      1.6535      1.3114      1.0560     0.93039    
 0.86162     0.86516     0.93039      1.1467      1.5048      1.8656      2.0892      2.1622      2.1459      2.1103    
  2.0950      2.1103      2.1459      2.1622      2.0892      1.8656      1.5048      1.1467     0.93039     0.86516    
 0.91103     0.95083      1.0926      1.3587      1.6971      1.9849      2.1420      2.1783      2.1516      2.1175    
  2.1041      2.1175      2.1516      2.1783      2.1420      1.9849      1.6971      1.3587      1.0926     0.95083    
 0.95083     0.99572      1.1467      1.4141      1.7397      2.0071      2.1485      2.1770      2.1484      2.1150    
  2.1020      2.1150      2.1484      2.1770      2.1485      2.0071      1.7397      1.4141      1.1467     0.99572    
  1.0926      1.1467      1.3114      1.5697      1.8519      2.0632      2.1641      2.1740      2.1425      2.1119    
  2.1005      2.1119      2.1425      2.1740      2.1641      2.0632      1.8519      1.5697      1.3114      1.1467    
  1.3587      1.4141      1.5697      1.7855      1.9909      2.1275      2.1797      2.1711      2.1409      2.1173    
  2.1093      2.1173      2.1409      2.1711      2.1797      2.1275      1.9909      1.7855      1.5697      1.4141    
  1.6971      1.7397      1.8519      1.9909      2.1086      2.1741      2.1868      2.1694      2.1478      2.1353    
  2.1319      2.1353      2.1478      2.1694      2.1868      2.1741      2.1086      1.9909      1.8519      1.7397    
  1.9849      2.0071      2.0632      2.1275      2.1741      2.1907      2.1834      2.1689      2.1603      2.1594    
  2.1604      2.1594      2.1603      2.1689      2.1834      2.1907      2.1741      2.1275      2.0632      2.0071    
  2.1420      2.1485      2.1641      2.1797      2.1868      2.1834      2.1749      2.1694      2.1710      2.1766    
  2.1796      2.1766      2.1710      2.1694      2.1749      2.1834      2.1868      2.1797      2.1641      2.1485    
  2.1783      2.1770      2.1740      2.1711      2.1694      2.1689      2.1694      2.1711      2.1740      2.1770    
  2.1783      2.1770      2.1740      2.1711      2.1694      2.1689      2.1694      2.1711      2.1740      2.1770    
  2.1516      2.1484      2.1425      2.1409      2.1478      2.1603      2.1710      2.1740      2.1693      2.1622    
  2.1589      2.1622      2.1693      2.1740      2.1710      2.1603      2.1478      2.1409      2.1425      2.1484    
  2.1175      2.1150      2.1119      2.1173      2.1353      2.1594      2.1766      2.1770      2.1622      2.1438    
  2.1357      2.1438      2.1622      2.1770      2.1766      2.1594      2.1353      2.1173      2.1119      2.1150    
  2.1041      2.1020      2.1005      2.1093      2.1319      2.1604      2.1796      2.1783      2.1589      2.1357    
  2.1255      2.1357      2.1589      2.1783      2.1796      2.1604      2.1319      2.1093      2.1005      2.1020    
  2.1175      2.1150      2.1119      2.1173      2.1353      2.1594      2.1766      2.1770      2.1622      2.1438    
  2.1357      2.1438      2.1622      2.1770      2.1766      2.1594      2.1353      2.1173      2.1119      2.1150    
  2.1516      2.1484      2.1425      2.1409      2.1478      2.1603      2.1710      2.1740      2.1693      2.1622    
  2.1589      2.1622      2.1693      2.1740      2.1710      2.1603      2.1478      2.1409      2.1425      2.1484    
  2.1783      2.1770      2.1740      2.1711      2.1694      2.1689      2.1694      2.1711      2.1740      2.1770    
  2.1783      2.1770      2.1740      2.1711      2.1694      2.1689      2.1694      2.1711      2.1740      2.1770    
  2.1420      2.1485      2.1641      2.1797      2.1868      2.1834      2.1749      2.1694      2.1710      2.1766    
  2.1796      2.1766      2.1710      2.1694      2.1749      2.1834      2.1868      2.1797      2.1641      2.1485    
  1.9849      2.0071      2.0632      2.1275      2.1741      2.1907      2.1834      2.1689      2.1603      2.1594    
  2.1604      2.1594      2.1603      2.1689      2.1834      2.1907      2.1741      2.1275      2.0632      2.0071    
  1.6971      1.7397      1.8519      1.9909      2.1086      2.1741      2.1868      2.1694      2.1478      2.1353    
  2.1319      2.1353      2.1478      2.1694      2.1868      2.1741      2.1086      1.9909      1.8519      1.7397    
  1.3587      1.4141      1.5697      1.7855      1.9909      2.1275      2.1797      2.1711      2.1409      2.1173    
  2.1093      2.1173      2.1409      2.1711      2.1797      2.1275      1.9909      1.7855      1.5697      1.4141    
  1.0926      1.1467      1.3114      1.5697      1.8519      2.0632      2.1641      2.1740      2.1425      2.1119    
  2.1005      2.1119      2.1425      2.1740      2.1641      2.0632      1.8519      1.5697      1.3114      1.1467    
 0.95083     0.99572      1.1467      1.4141      1.7397      2.0071      2.1485      2.1770      2.1484      2.1150    
  2.1020      2.1150      2.1484      2.1770      2.1485      2.0071      1.7397      1.4141      1.1467     0.99572    
  1.2204      1.2799      1.4507      1.6971      1.9427      2.1127      2.1834      2.1796      2.1471      2.1204    
  2.1112      2.1204      2.1471      2.1796      2.1834      2.1127      1.9427      1.6971      1.4507      1.2799    
  1.2799      1.3385      1.5048      1.7397      1.9680      2.1225      2.1836      2.1766      2.1447      2.1194    
  2.1107      2.1194      2.1447      2.1766      2.1836      2.1225      1.9680      1.7397      1.5048      1.3385    
  1.4507      1.5048      1.6535      1.8519      2.0326      2.1469      2.1847      2.1710      2.1420      2.1214    
  2.1147      2.1214      2.1420      2.1710      2.1847      2.1469      2.0326      1.8519      1.6535      1.5048    
  1.6971      1.7397      1.8519      1.9909      2.1086      2.1741      2.1868      2.1694      2.1478      2.1353    
  2.1319      2.1353      2.1478      2.1694      2.1868      2.1741      2.1086      1.9909      1.8519      1.7397    
  1.9427      1.9680      2.0326      2.1086      2.1668      2.1921      2.1892      2.1749      2.1643      2.1612    
  2.1613      2.1612      2.1643      2.1749      2.1892      2.1921      2.1668      2.1086      2.0326      1.9680    
  2.1127      2.1225      2.1469      2.1741      2.1921      2.1961      2.1903      2.1834      2.1817      2.1843    
  2.1861      2.1843      2.1817      2.1834      2.1903      2.1961      2.1921      2.1741      2.1469      2.1225    
  2.1834      2.1836      2.1847      2.1868      2.1892      2.1903      2.1892      2.1868      2.1847      2.1836    
  2.1834      2.1836      2.1847      2.1868      2.1892      2.1903      2.1892      2.1868      2.1847      2.1836    
  2.1796      2.1766      2.1710      2.1694      2.1749      2.1834      2.1868      2.1797      2.1641      2.1485    
  2.1420      2.1485      2.1641      2.1797      2.1868      2.1834      2.1749      2.1694      2.1710      2.1766    
  2.1471      2.1447      2.1420      2.1478      2.1643      2.1817      2.1847      2.1641      2.1259      2.0892    
  2.0741      2.0892      2.1259      2.1641      2.1847      2.1817      2.1643      2.1478      2.1420      2.1447    
  2.1204      2.1194      2.1214      2.1353      2.1612      2.1843      2.1836      2.1485      2.0892      2.0338    
  2.0112      2.0338      2.0892      2.1485      2.1836      2.1843      2.1612      2.1353      2.1214      2.1194    
  2.1112      2.1107      2.1147      2.1319      2.1613      2.1861      2.1834      2.1420      2.0741      2.0112    
  1.9857      2.0112      2.0741      2.1420      2.1834      2.1861      2.1613      2.1319      2.1147      2.1107    
  2.1204      2.1194      2.1214      2.1353      2.1612      2.1843      2.1836      2.1485      2.0892      2.0338    
  2.0112      2.0338      2.0892      2.1485      2.1836      2.1843      2.1612      2.1353      2.1214      2.1194    
  2.1471      2.1447      2.1420      2.1478      2.1643      2.1817      2.1847      2.1641      2.1259      2.0892    
  2.0741      2.0892      2.1259      2.1641      2.1847      2.1817      2.1643      2.1478      2.1420      2.1447    
  2.1796      2.1766      2.1710      2.1694      2.1749      2.1834      2.1868      2.1797      2.1641      2.1485    
  2.1420      2.1485      2.1641      2.1797      2.1868      2.1834      2.1749      2.1694      2.1710      2.1766    
  2.1834      2.1836      2.1847      2.1868      2.1892      2.1903      2.1892      2.1868      2.1847      2.1836    
  2.1834      2.1836      2.1847      2.1868      2.1892      2.1903      2.1892      2.1868      2.1847      2.1836    
  2.1127      2.1225      2.1469      2.1741      2.1921      2.1961      2.1903      2.1834      2.1817      2.1843    
  2.1861      2.1843      2.1817      2.1834      2.1903      2.1961      2.1921      2.1741      2.1469      2.1225    
  1.9427      1.9680      2.0326      2.1086      2.1668      2.1921      2.1892      2.1749      2.1643      2.1612    
  2.1613      2.1612      2.1643      2.1749      2.1892      2.1921      2.1668      2.1086      2.0326      1.9680    
  1.6971      1.7397      1.8519      1.9909      2.1086      2.1741      2.1868      2.1694      2.1478      2.1353    
  2.1319      2.1353      2.1478      2.1694      2.1868      2.1741      2.1086      1.9909      1.8519      1.7397    
  1.4507      1.5048      1.6535      1.8519      2.0326      2.1469      2.1847      2.1710      2.1420      2.1214    
  2.1147      2.1214      2.1420      2.1710      2.1847      2.1469      2.0326      1.8519      1.6535      1.5048    
  1.2799      1.3385      1.5048      1.7397      1.9680      2.1225      2.1836      2.1766      2.1447      2.1194    
  2.1107      2.1194      2.1447      2.1766      2.1836      2.1225      1.9680      1.7397      1.5048      1.3385    
  1.6563      1.7045      1.8304      1.9849      2.1127      2.1794      2.1861      2.1604      2.1329      2.1179    
  2.1140      2.1179      2.1329      2.1604      2.1861      2.1794      2.1127      1.9849      1.8304      1.7045    
  1.7045      1.7492      1.8656      2.0071      2.1225      2.1808      2.1843      2.1594      2.1343      2.1212    
  2.1179      2.1212      2.1343      2.1594      2.1843      2.1808      2.1225      2.0071      1.8656      1.7492    
  1.8304      1.8656      1.9559      2.0632      2.1469      2.1848      2.1817      2.1603      2.1420      2.1343    
  2.1329      2.1343      2.1420      2.1603      2.1817      2.1848      2.1469      2.0632      1.9559      1.8656    
  1.9849      2.0071      2.0632      2.1275      2.1741      2.1907      2.1834      2.1689      2.1603      2.1594    
  2.1604      2.1594      2.1603      2.1689      2.1834      2.1907      2.1741      2.1275      2.0632      2.0071    
  2.1127      2.1225      2.1469      2.1741      2.1921      2.1961      2.1903      2.1834      2.1817      2.1843    
  2.1861      2.1843      2.1817      2.1834      2.1903      2.1961      2.1921      2.1741      2.1469      2.1225    
  2.1794      2.1808      2.1848      2.1907      2.1961      2.1984      2.1961      2.1907      2.1848      2.1808    
  2.1794      2.1808      2.1848      2.1907      2.1961      2.1984      2.1961      2.1907      2.1848      2.1808    
  2.1861      2.1843      2.1817      2.1834      2.1903      2.1961      2.1921      2.1741      2.1469      2.1225    
  2.1127      2.1225      2.1469      2.1741      2.1921      2.1961      2.1903      2.1834      2.1817      2.1843    
  2.1604      2.1594      2.1603      2.1689      2.1834      2.1907      2.1741      2.1275      2.0632      2.0071    
  1.9849      2.0071      2.0632      2.1275      2.1741      2.1907      2.1834      2.1689      2.1603      2.1594    
  2.1329      2.1343      2.1420      2.1603      2.1817      2.1848      2.1469      2.0632      1.9559      1.8656    
  1.8304      1.8656      1.9559      2.0632      2.1469      2.1848      2.1817      2.1603      2.1420      2.1343    
  2.1179      2.1212      2.1343      2.1594      2.1843      2.1808      2.1225      2.0071      1.8656      1.7492    
  1.7045      1.7492      1.8656      2.0071      2.1225      2.1808      2.1843      2.1594      2.1343      2.1212    
  2.1140      2.1179      2.1329      2.1604      2.1861      2.1794      2.1127      1.9849      1.8304      1.7045    
  1.6563      1.7045      1.8304      1.9849      2.1127      2.1794      2.1861      2.1604      2.1329      2.1179    
  2.1179      2.1212      2.1343      2.1594      2.1843      2.1808      2.1225      2.0071      1.8656      1.7492    
  1.7045      1.7492      1.8656      2.0071      2.1225      2.1808      2.1843      2.1594      2.1343      2.1212    
  2.1329      2.1343      2.1420      2.1603      2.1817      2.1848      2.1469      2.0632      1.9559      1.8656    
  1.8304      1.8656      1.9559      2.0632      2.1469      2.1848      2.1817      2.1603      2.1420      2.1343    
  2.1604      2.1594      2.1603      2.1689      2.1834      2.1907      2.1741      2.1275      2.0632      2.0071    
  1.9849      2.0071      2.0632      2.1275      2.1741      2.1907      2.1834      2.1689      2.1603      2.1594    
  2.1861      2.1843      2.1817      2.1834      2.1903      2.1961      2.1921      2.1741      2.1469      2.1225    
  2.1127      2.1225      2.1469      2.1741      2.1921      2.1961      2.1903      2.1834      2.1817      2.1843    
  2.1794      2.1808      2.1848      2.1907      2.1961      2.1984      2.1961      2.1907      2.1848      2.1808    
  2.1794      2.1808      2.1848      2.1907      2.1961      2.1984      2.1961      2.1907      2.1848      2.1808    
  2.1127      2.1225      2.1469      2.1741      2.1921      2.1961      2.1903      2.1834      2.1817      2.1843    
  2.1861      2.1843      2.1817      2.1834      2.1903      2.1961      2.1921      2.1741      2.1469      2.1225    
  1.9849      2.0071      2.0632      2.1275      2.1741      2.1907      2.1834      2.1689      2.1603      2.1594    
  2.1604      2.1594      2.1603      2.1689      2.1834      2.1907      2.1741      2.1275      2.0632      2.0071    
  1.8304      1.8656      1.9559      2.0632      2.1469      2.1848      2.1817      2.1603      2.1420      2.1343    
  2.1329      2.1343      2.1420      2.1603      2.1817      2.1848      2.1469      2.0632      1.9559      1.8656    
  1.7045      1.7492      1.8656      2.0071      2.1225      2.1808      2.1843      2.1594      2.1343      2.1212    
  2.1179      2.1212      2.1343      2.1594      2.1843      2.1808      2.1225      2.0071      1.8656      1.7492    
  1.9857      2.0112      2.0741      2.1420      2.1834      2.1861      2.1613      2.1319      2.1147      2.1107    
  2.1112      2.1107      2.1147      2.1319      2.1613      2.1861      2.1834      2.1420      2.0741      2.0112    
  2.0112      2.0338      2.0892      2.1485      2.1836      2.1843      2.1612      2.1353      2.1214      2.1194    
  2.1204      2.1194      2.1214      2.1353      2.1612      2.1843      2.1836      2.1485      2.0892      2.0338    
  2.0741      2.0892      2.1259      2.1641      2.1847      2.1817      2.1643      2.1478      2.1420      2.1447    