    2    2    1    1
  0.3725282E+02  0.4207877E-09  0.4207877E-09  0.4207877E-09  0.5000000E-15
  1.000000000000000E-004
  CAR 
 bcc Na                                  
    2   35    6
 
  0.5000000E-01  0.5000000E-01  0.5000000E-01  0.8000000E-02
   1       -2.768478
   2        4.402353
   3        4.402353
   4        5.060193
   5        5.991156
   6        5.991156
 
  0.1500000E+00  0.5000000E-01  0.5000000E-01  0.2400000E-01
   1       -2.593648
   2        3.186677
   3        4.560744
   4        5.120911
   5        6.145989
   6        6.953182
 
  0.2500000E+00  0.5000000E-01  0.5000000E-01  0.2400000E-01
   1       -2.245363
   2        1.940856
   3        4.875943
   4        5.413284
   5        6.454436
   6        7.589696
 
  0.3500000E+00  0.5000000E-01  0.5000000E-01  0.2400000E-01
   1       -1.724350
   2        0.804514
   3        5.353204
   4        5.863050
   5        6.925430
   6        7.701962
 
  0.4500000E+00  0.5000000E-01  0.5000000E-01  0.2400000E-01
   1       -1.039427
   2       -0.194563
   3        5.978235
   4        6.459845
   5        6.763327
   6        7.205834
 
  0.1500000E+00  0.1500000E+00  0.5000000E-01  0.2400000E-01
   1       -2.419305
   2        3.155949
   3        3.598757
   4        5.112270
   5        6.650259
   6        7.877917
 
  0.2500000E+00  0.1500000E+00  0.5000000E-01  0.4800000E-01
   1       -2.071995
   2        2.091565
   3        3.737096
   4        5.406638
   5        7.017212
   6        7.632894
 
  0.3500000E+00  0.1500000E+00  0.5000000E-01  0.4800000E-01
   1       -1.553054
   2        0.967335
   3        4.200040
   4        5.864498
   5        6.552021
   6        7.511448
 
  0.4500000E+00  0.1500000E+00  0.5000000E-01  0.4800000E-01
   1       -0.868711
   2       -0.026425
   3        4.829629
   4        5.615979
   5        6.469436
   6        7.224611
 
  0.2500000E+00  0.2500000E+00  0.5000000E-01  0.2400000E-01
   1       -1.725669
   2        2.225014
   3        2.684434
   4        5.699845
   5        6.427253
   6        7.413120
 
  0.3500000E+00  0.2500000E+00  0.5000000E-01  0.4800000E-01
   1       -1.210026
   2        1.287626
   3        2.970791
   4        5.339246
   5        6.153739
   6        7.915783
 
  0.4500000E+00  0.2500000E+00  0.5000000E-01  0.4800000E-01
   1       -0.530281
   2        0.306092
   3        3.596758
   4        4.393461
   5        6.756419
   6        7.506740
 
  0.3500000E+00  0.3500000E+00  0.5000000E-01  0.2400000E-01
   1       -0.698330
   2        1.599926
   3        2.025119
   4        4.242725
   5        6.604912
   6        8.415586
 
  0.4500000E+00  0.3500000E+00  0.5000000E-01  0.4800000E-01
   1       -0.025250
   2        0.798724
   3        2.492104
   4        3.288224
   5        7.199999
   6        7.923150
 
  0.4500000E+00  0.4500000E+00  0.5000000E-01  0.2400000E-01
   1        0.635733
   2        1.289444
   3        1.684003
   4        2.331207
   5        7.768486
   6        8.254956
 
  0.1500000E+00  0.1500000E+00  0.1500000E+00  0.8000000E-02
   1       -2.245368
   2        3.310538
   3        3.310538
   4        4.209102
   5        8.032858
   6        8.032858
 
  0.2500000E+00  0.1500000E+00  0.1500000E+00  0.2400000E-01
   1       -1.899211
   2        2.242155
   3        3.626902
   4        4.338612
   5        7.541794
   6        8.060856
 
  0.3500000E+00  0.1500000E+00  0.1500000E+00  0.2400000E-01
   1       -1.382232
   2        1.129330
   3        4.094765
   4        4.789063
   5        6.443220
   6        7.083130
 
  0.4500000E+00  0.1500000E+00  0.1500000E+00  0.2400000E-01
   1       -0.698523
   2        0.141095
   3        4.721374
   4        5.411691
   5        5.505580
   6        6.185038
 
  0.2500000E+00  0.2500000E+00  0.1500000E+00  0.2400000E-01
   1       -1.553736
   2        2.377109
   3        2.806309
   4        4.396280
   5        6.532376
   6        7.848115
 
  0.3500000E+00  0.2500000E+00  0.1500000E+00  0.4800000E-01
   1       -1.038673
   2        1.447587
   3        3.106629
   4        4.842612
   5        5.460263
   6        7.100570
 
  0.4500000E+00  0.2500000E+00  0.1500000E+00  0.4800000E-01
   1       -0.360212
   2        0.473008
   3        3.731257
   4        4.520280
   5        5.462754
   6        6.228701
 
  0.3500000E+00  0.3500000E+00  0.1500000E+00  0.2400000E-01
   1       -0.529701
   2        1.755680
   3        2.186468
   4        4.387164
   5        5.283924
   6        7.218321
 
  0.4500000E+00  0.3500000E+00  0.1500000E+00  0.4800000E-01
   1        0.142146
   2        0.963307
   3        2.649539
   4        3.439098
   5        5.891686
   6        6.615118
 
  0.4500000E+00  0.4500000E+00  0.1500000E+00  0.2400000E-01
   1        0.800158
   2        1.445439
   3        1.855003
   4        2.490726
   5        6.455989
   6        6.902290
 
  0.2500000E+00  0.2500000E+00  0.2500000E+00  0.8000000E-02
   1       -1.208679
   2        2.688293
   3        2.688293
   4        3.577042
   5        6.600452
   6        6.600452
 
  0.3500000E+00  0.2500000E+00  0.2500000E+00  0.2400000E-01
   1       -0.698733
   2        1.762044
   3        3.156475
   4        3.864985
   5        5.502184
   6        6.076017
 
  0.4500000E+00  0.2500000E+00  0.2500000E+00  0.2400000E-01
   1       -0.024426
   2        0.802643
   3        3.779842
   4        4.479369
   5        4.562421
   6        5.245346
 
  0.3500000E+00  0.3500000E+00  0.2500000E+00  0.2400000E-01
   1       -0.193503
   2        2.067045
   3        2.477008
   4        4.075713
   5        4.647815
   6        5.969175
 
  0.4500000E+00  0.3500000E+00  0.2500000E+00  0.4800000E-01
   1        0.473094
   2        1.286157
   3        2.944499
   4        3.723329
   5        4.671559
   6        5.392697
 
  0.4500000E+00  0.4500000E+00  0.2500000E+00  0.2400000E-01
   1        1.124926
   2        1.755593
   3        2.180877
   4        2.801355
   5        5.219267
   6        5.655539
 
  0.3500000E+00  0.3500000E+00  0.3500000E+00  0.8000000E-02
   1        0.306414
   2        2.534060
   3        2.534060
   4        3.394037
   5        4.872629
   6        4.872629
 
  0.4500000E+00  0.3500000E+00  0.3500000E+00  0.2400000E-01
   1        0.964584
   2        1.759701
   3        3.154448
   4        3.827110
   5        3.934129
   6        4.502018
 
  0.4500000E+00  0.4500000E+00  0.3500000E+00  0.2400000E-01
   1        1.606086
   2        2.222376
   3        2.627659
   4        3.236109
   5        4.152016
   6        4.561839
 
  0.4500000E+00  0.4500000E+00  0.4500000E+00  0.8000000E-02
   1        2.230255
   2        2.845567
   3        2.845567
   4        3.548009
   5        3.625868
   6        3.625868
