AuAl2 soc                               
   6.50000000000000     
     0.000000    0.458506    0.458506
     0.458506    0.000000    0.458506
     0.458506    0.458506    0.000000
   Au   Al
     1     2
Direct
  0.000000  0.000000  0.000000
  0.250000  0.250000  0.250000
  0.750000  0.750000  0.750000
 
   32   32   32
  243.50      232.81      205.76      172.50      139.68      108.15      77.859      51.818      33.831      23.919    
  18.272      14.655      12.481      11.392      10.727      10.086      9.7700      10.086      10.727      11.392    
  12.481      14.655      18.272      23.919      33.831      51.818      77.859      108.15      139.68      172.50    
  205.76      232.81      232.81      214.22      184.62      152.46      121.14      90.651      62.585      40.873    
  27.669      20.590      16.208      13.408      11.829      11.031      10.413      9.8988      9.8760      10.382    
  11.044      11.864      13.408      16.175      20.579      27.696      40.900      62.606      90.705      121.20    
  152.37      184.28      213.79      232.60      205.76      184.62      157.15      128.15      99.017      71.033    
  47.547      31.688      22.922      17.788      14.528      12.504      11.392      10.709      10.139      9.8737    
  10.132      10.709      11.399      12.504      14.522      17.788      22.927      31.685      47.550      71.086    
  99.117      128.18      156.98      184.26      205.47      213.79      172.50      152.46      128.15      101.93    
  75.624      52.277      35.192      25.073      19.265      15.617      13.279      11.869      11.031      10.397    
  9.9635      9.9745      10.414      11.028      11.850      13.273      15.635      19.280      25.056      35.152    
  52.257      75.655      102.00      128.20      152.46      172.48      184.26      184.28      139.68      121.14    
  99.017      75.624      53.983      37.232      26.629      20.444      16.557      14.035      12.382      11.348    
  10.640      10.106      9.8831      10.104      10.640      11.350      12.382      14.033      16.559      20.450    
  26.629      37.204      53.926      75.571      99.018      121.22      139.80      152.46      156.98      152.37    
  108.15      90.651      71.033      52.277      37.232      27.200      21.082      17.167      14.632      12.884    
  11.664      10.811      10.194      9.8283      9.8226      10.186      10.813      11.674      12.887      14.621    
  17.163      21.109      27.247      37.247      52.214      70.907      90.536      108.11      121.22      128.20    
  128.18      121.20      77.859      62.585      47.547      35.192      26.629      21.082      17.369      14.932    
  13.232      11.952      10.961      10.209      9.7121      9.5363      9.7154      10.209      10.958      11.953    
  13.233      14.927      17.366      21.110      26.703      35.270      47.555      62.484      77.684      90.536    
  99.018      102.00      99.117      90.705      51.818      40.873      31.688      25.073      20.444      17.167    
  14.932      13.346      12.111      11.074      10.208      9.5625      9.2151      9.2183      9.5666      10.206    
  11.070      12.113      13.349      14.915      17.129      20.426      25.134      31.832      41.017      51.847    
  62.484      70.907      75.571      75.655      71.086      62.606      33.831      27.669      22.922      19.265    
  16.557      14.632      13.232      12.111      11.113      10.202      9.4393      8.9255      8.7433      8.9245    
  9.4392      10.203      11.115      12.116      13.231      14.603      16.486      19.190      22.923      27.788    
  34.007      41.017      47.555      52.214      53.926      52.257      47.550      40.900      23.919      20.590    
  17.788      15.617      14.035      12.884      11.952      11.074      10.202      9.3902      8.7493      8.3910    
  8.3882      8.7465      9.3930      10.204      11.074      11.965      12.916      14.050      15.560      17.657    
  20.462      23.890      27.788      31.832      35.270      37.247      37.204      35.152      31.685      27.696    
  18.272      16.208      14.528      13.279      12.382      11.664      10.961      10.208      9.4393      8.7493    
  8.2595      8.0779      8.2546      8.7487      9.4421      10.204      10.958      11.693      12.457      13.353    
  14.522      16.091      18.102      20.462      22.923      25.134      26.703      27.247      26.629      25.056    
  22.927      20.579      14.655      13.408      12.504      11.869      11.348      10.811      10.209      9.5625    
  8.9255      8.3910      8.0779      8.0761      8.3886      8.9265      9.5619      10.195      10.785      11.341    
  11.924      12.622      13.524      14.683      16.091      17.657      19.190      20.426      21.110      21.109    
  20.450      19.280      17.788      16.175      12.481      11.829      11.392      11.031      10.640      10.194    
  9.7121      9.2151      8.7433      8.3882      8.2546      8.3886      8.7445      9.2189      9.7114      10.166    
  10.570      10.957      11.394      11.946      12.655      13.524      14.522      15.560      16.486      17.129    
  17.366      17.163      16.559      15.635      14.522      13.408      11.392      11.031      10.709      10.397    
  10.106      9.8283      9.5363      9.2183      8.9245      8.7465      8.7487      8.9265      9.2189      9.5469    
  9.8514      10.109      10.339      10.594      10.928      11.376      11.946      12.622      13.353      14.050    
  14.603      14.915      14.927      14.621      14.033      13.273      12.504      11.864      10.727      10.413    
  10.139      9.9635      9.8831      9.8226      9.7154      9.5666      9.4392      9.3930      9.4421      9.5619    
  9.7114      9.8514      9.9576      10.037      10.133      10.296      10.558      10.928      11.394      11.924    
  12.457      12.916      13.231      13.349      13.233      12.887      12.382      11.850      11.399      11.044    
  10.086      9.8988      9.8737      9.9745      10.104      10.186      10.209      10.206      10.203      10.204    
  10.204      10.195      10.166      10.109      10.037      9.9843      9.9928      10.093      10.296      10.594    
  10.957      11.341      11.693      11.965      12.116      12.113      11.953      11.674      11.350      11.028    
  10.709      10.382      9.7700      9.8760      10.132      10.414      10.640      10.813      10.958      11.070    
  11.115      11.074      10.958      10.785      10.570      10.339      10.133      9.9928      9.9435      9.9928    
  10.133      10.339      10.570      10.785      10.958      11.074      11.115      11.070      10.958      10.813    
  10.640      10.414      10.132      9.8760      10.086      10.382      10.709      11.028      11.350      11.674    
  11.953      12.113      12.116      11.965      11.693      11.341      10.957      10.594      10.296      10.093    
  9.9928      9.9843      10.037      10.109      10.166      10.195      10.204      10.204      10.203      10.206    
  10.209      10.186      10.104      9.9745      9.8737      9.8988      10.727      11.044      11.399      11.850    
  12.382      12.887      13.233      13.349      13.231      12.916      12.457      11.924      11.394      10.928    
  10.558      10.296      10.133      10.037      9.9576      9.8514      9.7114      9.5619      9.4421      9.3930    
  9.4392      9.5666      9.7154      9.8226      9.8831      9.9635      10.139      10.413      11.392      11.864    
  12.504      13.273      14.033      14.621      14.927      14.915      14.603      14.050      13.353      12.622    
  11.946      11.376      10.928      10.594      10.339      10.109      9.8514      9.5469      9.2189      8.9265    
  8.7487      8.7465      8.9245      9.2183      9.5363      9.8283      10.106      10.397      10.709      11.031    
  12.481      13.408      14.522      15.635      16.559      17.163      17.366      17.129      16.486      15.560    
  14.522      13.524      12.655      11.946      11.394      10.957      10.570      10.166      9.7114      9.2189    
  8.7445      8.3886      8.2546      8.3882      8.7433      9.2151      9.7121      10.194      10.640      11.031    
  11.392      11.829      14.655      16.175      17.788      19.280      20.450      21.109      21.110      20.426    
  19.190      17.657      16.091      14.683      13.524      12.622      11.924      11.341      10.785      10.195    
  9.5619      8.9265      8.3886      8.0761      8.0779      8.3910      8.9255      9.5625      10.209      10.811    
  11.348      11.869      12.504      13.408      18.272      20.579      22.927      25.056      26.629      27.247    
  26.703      25.134      22.923      20.462      18.102      16.091      14.522      13.353      12.457      11.693    
  10.958      10.204      9.4421      8.7487      8.2546      8.0779      8.2595      8.7493      9.4393      10.208    
  10.961      11.664      12.382      13.279      14.528      16.208      23.919      27.696      31.685      35.152    
  37.204      37.247      35.270      31.832      27.788      23.890      20.462      17.657      15.560      14.050    
  12.916      11.965      11.074      10.204      9.3930      8.7465      8.3882      8.3910      8.7493      9.3902    
  10.202      11.074      11.952      12.884      14.035      15.617      17.788      20.590      33.831      40.900    
  47.550      52.257      53.926      52.214      47.555      41.017      34.007      27.788      22.923      19.190    
  16.486      14.603      13.231      12.116      11.115      10.203      9.4392      8.9245      8.7433      8.9255    
  9.4393      10.202      11.113      12.111      13.232      14.632      16.557      19.265      22.922      27.669    
  51.818      62.606      71.086      75.655      75.571      70.907      62.484      51.847      41.017      31.832    
  25.134      20.426      17.129      14.915      13.349      12.113      11.070      10.206      9.5666      9.2183    
  9.2151      9.5625      10.208      11.074      12.111      13.346      14.932      17.167      20.444      25.073    
  31.688      40.873      77.859      90.705      99.117      102.00      99.018      90.536      77.684      62.484    
  47.555      35.270      26.703      21.110      17.366      14.927      13.233      11.953      10.958      10.209    
  9.7154      9.5363      9.7121      10.209      10.961      11.952      13.232      14.932      17.369      21.082    
  26.629      35.192      47.547      62.585      108.15      121.20      128.18      128.20      121.22      108.11    
  90.536      70.907      52.214      37.247      27.247      21.109      17.163      14.621      12.887      11.674    
  10.813      10.186      9.8226      9.8283      10.194      10.811      11.664      12.884      14.632      17.167    
  21.082      27.200      37.232      52.277      71.033      90.651      139.68      152.37      156.98      152.46    
  139.80      121.22      99.018      75.571      53.926      37.204      26.629      20.450      16.559      14.033    
  12.382      11.350      10.640      10.104      9.8831      10.106      10.640      11.348      12.382      14.035    
  16.557      20.444      26.629      37.232      53.983      75.624      99.017      121.14      172.50      184.28    
  184.26      172.48      152.46      128.20      102.00      75.655      52.257      35.152      25.056      19.280    
  15.635      13.273      11.850      11.028      10.414      9.9745      9.9635      10.397      11.031      11.869    
  13.279      15.617      19.265      25.073      35.192      52.277      75.624      101.93      128.15      152.46    
  205.76      213.79      205.47      184.26      156.98      128.18      99.117      71.086      47.550      31.685    
  22.927      17.788      14.522      12.504      11.399      10.709      10.132      9.8737      10.139      10.709    
  11.392      12.504      14.528      17.788      22.922      31.688      47.547      71.033      99.017      128.15    
  157.15      184.62      232.81      232.60      213.79      184.28      152.37      121.20      90.705      62.606    
  40.900      27.696      20.579      16.175      13.408      11.864      11.044      10.382      9.8760      9.8988    
  10.413      11.031      11.829      13.408      16.208      20.590      27.669      40.873      62.585      90.651    
  121.14      152.46      184.62      214.22      232.81      214.22      184.62      152.46      121.14      90.651    
  62.585      40.873      27.669      20.590      16.208      13.408      11.829      11.031      10.413      9.8988    
  9.8760      10.382      11.044      11.864      13.408      16.175      20.579      27.696      40.900      62.606    
  90.705      121.20      152.37      184.28      213.79      232.60      214.22      191.10      161.61      131.33    
  101.57      73.108      49.013      32.562      23.453      18.168      14.807      12.725      11.598      10.910    
  10.324      10.046      10.315      10.910      11.607      12.726      14.798      18.167      23.459      32.557    
  49.025      73.208      101.74      131.35      161.28      190.47      213.71      223.00      184.62      161.61    
  134.93      107.33      80.035      55.547      37.256      26.293      20.117      16.240      13.762      12.290    
  11.436      10.778      10.310      10.320      10.795      11.434      12.271      13.754      16.258      20.133    
  26.270      37.216      55.572      80.166      107.47      134.91      161.35      184.27      198.31      198.47    
  152.46      131.33      107.33      82.468      59.195      40.659      28.668      21.824      17.574      14.819    
  13.033      11.950      11.213      10.628      10.373      10.623      11.213      11.955      13.033      14.813    
  17.576      21.831      28.654      40.613      59.157      82.500      107.44      131.45      152.54      167.70    
  173.32      167.67      121.14      101.57      80.035      59.195      41.928      30.070      22.992      18.572    
  15.731      13.787      12.456      11.545      10.872      10.448      10.438      10.857      11.551      12.472    
  13.787      15.716      18.571      23.013      30.073      41.873      59.107      79.993      101.64      121.29    
  136.48      144.85      144.80      136.33      90.651      73.108      55.547      40.659      30.070      23.424    
  19.107      16.308      14.376      12.936      11.836      10.993      10.414      10.201      10.417      10.993    
  11.833      12.937      14.377      16.305      19.110      23.454      30.118      40.675      55.484      72.989    
  90.554      105.43      115.35      118.82      115.34      105.46      62.585      49.013      37.256      28.668    
  22.992      19.107      16.508      14.683      13.260      12.067      11.059      10.282      9.8507      9.8562    
  10.289      11.055      12.060      13.262      14.686      16.498      19.100      23.030      28.759      37.344    
  49.018      62.487      75.500      85.702      91.294      91.340      85.825      75.650      40.873      32.562    
  26.293      21.824      18.572      16.308      14.683      13.375      12.190      11.082      10.125      9.4644    
  9.2273      9.4646      10.125      11.081      12.192      13.378      14.678      16.278      18.524      21.806    
  26.360      32.711      41.016      50.286      58.812      64.825      67.034      64.923      58.895      50.251    
  27.669      23.453      20.117      17.574      15.731      14.376      13.260      12.190      11.087      10.018    
  9.1530      8.6659      8.6642      9.1508      10.019      11.089      12.195      13.269      14.375      15.690    
  17.483      20.029      23.455      27.788      33.065      38.647      43.395      46.145      46.150      43.371    
  38.541      32.902      20.590      18.168      16.240      14.819      13.787      12.936      12.067      11.082    
  10.018      9.0342      8.3292      8.0693      8.3245      9.0333      10.021      11.081      12.069      12.962    
  13.832      14.833      16.171      18.028      20.464      23.341      26.430      29.377      31.541      32.312    
  31.456      29.255      26.352      23.369      16.208      14.807      13.762      13.033      12.456      11.836    
  11.059      10.125      9.1530      8.3292      7.8493      7.8459      8.3251      9.1540      10.123      11.047    
  11.834      12.500      13.127      13.845      14.801      16.093      17.725      19.581      21.421      22.915    
  23.742      23.711      22.859      21.424      19.684      17.884      13.408      12.725      12.290      11.950    
  11.545      10.993      10.282      9.4644      8.6659      8.0693      7.8459      8.0678      8.6652      9.4648    
  10.276      10.969      11.510      11.942      12.354      12.854      13.526      14.405      15.467      16.612    
  17.659      18.395      18.661      18.415      17.725      16.716      15.541      14.379      11.829      11.598    
  11.436      11.213      10.872      10.414      9.8507      9.2273      8.6642      8.3245      8.3251      8.6652    
  9.2307      9.8595      10.414      10.830      11.122      11.350      11.602      11.948      12.425      13.034    
  13.735      14.435      15.005      15.328      15.345      15.053      14.489      13.734      12.935      12.265    
  11.031      10.910      10.778      10.628      10.448      10.201      9.8562      9.4646      9.1508      9.0333    
  9.1540      9.4648      9.8595      10.223      10.482      10.630      10.708      10.787      10.929      11.171    
  11.522      11.963      12.439      12.869      13.172      13.287      13.181      12.858      12.380      11.869    
  11.453      11.186      10.413      10.324      10.310      10.373      10.438      10.417      10.289      10.125    
  10.019      10.021      10.123      10.276      10.414      10.482      10.467      10.393      10.318      10.298    
  10.367      10.539      10.802      11.121      11.437      11.693      11.841      11.842      11.679      11.389    
  11.064      10.805      10.640      10.525      9.8988      10.046      10.320      10.623      10.857      10.993    
  11.055      11.081      11.089      11.081      11.047      10.969      10.830      10.630      10.393      10.166    
  9.9941      9.9105      9.9290      10.043      10.222      10.423      10.607      10.738      10.787      10.735    
  10.599      10.428      10.270      10.133      10.005      9.9039      9.8760      10.315      10.795      11.213    
  11.551      11.833      12.060      12.192      12.195      12.069      11.834      11.510      11.122      10.708    
  10.318      9.9941      9.7631      9.6365      9.6076      9.6488      9.7232      9.8027      9.8702      9.9099    
  9.9078      9.8695      9.8193      9.7695      9.7020      9.6066      9.5373      9.6031      10.382      10.910    
  11.434      11.955      12.472      12.937      13.262      13.378      13.269      12.962      12.500      11.942    
  11.350      10.787      10.298      9.9105      9.6365      9.4666      9.3702      9.3098      9.2617      9.2221    
  9.1948      9.1831      9.1925      9.2267      9.2737      9.3074      9.3247      9.3791      9.5568      9.9039    
  11.044      11.607      12.271      13.033      13.787      14.377      14.686      14.678      14.375      13.832    
  13.127      12.354      11.602      10.929      10.367      9.9290      9.6076      9.3702      9.1735      8.9900    
  8.8195      8.6804      8.5978      8.5953      8.6793      8.8219      8.9760      9.1251      9.3142      9.6107    
  10.031      10.525      11.864      12.726      13.754      14.813      15.716      16.305      16.498      16.278    
  15.690      14.833      13.845      12.854      11.948      11.171      10.539      10.043      9.6488      9.3098    
  8.9900      8.6829      8.4105      8.2135      8.1385      8.2109      8.4101      8.6807      8.9788      9.3053    
  9.6873      10.134      10.630      11.186      13.408      14.798      16.258      17.576      18.571      19.110    
  19.100      18.524      17.483      16.171      14.801      13.526      12.425      11.522      10.802      10.222    
  9.7232      9.2617      8.8195      8.4105      8.0786      7.8875      7.8883      8.0793      8.4087      8.8189    
  9.2782      9.7694      10.275      10.801      11.423      12.265      16.175      18.167      20.133      21.831    
  23.013      23.454      23.030      21.806      20.029      18.028      16.093      14.405      13.034      11.963    
  11.121      10.423      9.8027      9.2221      8.6804      8.2135      7.8875      7.7712      7.8908      8.2136    
  8.6771      9.2261      9.8187      10.430      11.082      11.869      12.935      14.379      20.579      23.459    
  26.270      28.654      30.073      30.118      28.759      26.360      23.455      20.464      17.725      15.467    
  13.735      12.439      11.437      10.607      9.8702      9.1948      8.5978      8.1385      7.8883      7.8908    
  8.1404      8.5944      9.1929      9.8723      10.593      11.389      12.383      13.739      15.570      17.884    
  27.696      32.557      37.216      40.613      41.873      40.675      37.344      32.711      27.788      23.341    
  19.581      16.612      14.435      12.869      11.693      10.738      9.9099      9.1831      8.5953      8.2109    
  8.0793      8.2136      8.5944      9.1797      9.9098      10.736      11.677      12.857      14.473      16.716    
  19.695      23.369      40.900      49.025      55.572      59.157      59.107      55.484      49.018      41.016    
  33.065      26.430      21.421      17.659      15.005      13.172      11.841      10.787      9.9078      9.1925    
  8.6793      8.4101      8.4087      8.6771      9.1929      9.9098      10.786      11.840      13.189      15.053    
  17.713      21.419      26.328      32.902      62.606      73.208      80.166      82.500      79.993      72.989    
  62.487      50.286      38.647      29.377      22.915      18.395      15.328      13.287      11.842      10.735    
  9.8695      9.2267      8.8219      8.6807      8.8189      9.2261      9.8723      10.736      11.840      13.295    
  15.350      18.407      22.872      29.263      38.520      50.251      90.705      101.74      107.47      107.44    
  101.64      90.554      75.500      58.812      43.395      31.541      23.742      18.661      15.345      13.181    
  11.679      10.599      9.8193      9.2737      8.9760      8.9788      9.2782      9.8187      10.593      11.677    
  13.189      15.350      18.639      23.688      31.485      43.396      58.900      75.650      121.20      131.35    
  134.91      131.45      121.29      105.43      85.702      64.825      46.145      32.312      23.711      18.415    
  15.053      12.858      11.389      10.428      9.7695      9.3074      9.1251      9.3053      9.7694      10.430    
  11.389      12.857      15.053      18.407      23.688      32.295      46.183      64.934      85.817      105.46    
  152.37      161.28      161.35      152.54      136.48      115.35      91.294      67.034      46.150      31.456    
  22.859      17.725      14.489      12.380      11.064      10.270      9.7020      9.3247      9.3142      9.6873    
  10.275      11.082      12.383      14.473      17.713      22.872      31.485      46.183      67.064      91.300    
  115.29      136.33      184.28      190.47      184.27      167.70      144.85      118.82      91.340      64.923    
  43.371      29.255      21.424      16.716      13.734      11.869      10.805      10.133      9.6066      9.3791    
  9.6107      10.134      10.801      11.869      13.739      16.716      21.419      29.263      43.396      64.934    
  91.300      118.74      144.78      167.67      213.79      213.71      198.31      173.32      144.80      115.34    
  85.825      58.895      38.541      26.352      19.684      15.541      12.935      11.453      10.640      10.005    
  9.5373      9.5568      10.031      10.630      11.423      12.935      15.570      19.695      26.328      38.520    
  58.900      85.817      115.29      144.78      173.41      198.47      232.60      223.00      198.47      167.67    
  136.33      105.46      75.650      50.251      32.902      23.369      17.884      14.379      12.265      11.186    
  10.525      9.9039      9.6031      9.9039      10.525      11.186      12.265      14.379      17.884      23.369    
  32.902      50.251      75.650      105.46      136.33      167.67      198.47      223.00      205.76      184.62    
  157.15      128.15      99.017      71.033      47.547      31.688      22.922      17.788      14.528      12.504    
  11.392      10.709      10.139      9.8737      10.132      10.709      11.399      12.504      14.522      17.788    
  22.927      31.685      47.550      71.086      99.117      128.18      156.98      184.26      205.47      213.79    
  184.62      161.61      134.93      107.33      80.035      55.547      37.256      26.293      20.117      16.240    
  13.762      12.290      11.436      10.778      10.310      10.320      10.795      11.434      12.271      13.754    
  16.258      20.133      26.270      37.216      55.572      80.166      107.47      134.91      161.35      184.27    
  198.31      198.47      157.15      134.93      110.16      84.782      60.985      41.869      29.401      22.317    
  17.934      15.093      13.260      12.160      11.413      10.809      10.543      10.804      11.412      12.165    
  13.260      15.087      17.934      22.319      29.381      41.830      60.984      84.872      110.31      135.03    
  157.15      173.37      179.48      173.41      128.15      107.33      84.782      62.921      44.524      31.674    
  24.040      19.344      16.328      14.271      12.878      11.938      11.232      10.775      10.763      11.215    
  11.945      12.897      14.270      16.310      19.341      24.056      31.660      44.447      62.836      84.798    
  107.50      128.43      145.03      154.38      154.28      144.78      99.017      80.035      60.985      44.524    
  32.537      25.034      20.286      17.228      15.131      13.578      12.404      11.500      10.863      10.622    
  10.863      11.500      12.403      13.579      15.132      17.230      20.294      25.046      32.525      44.457    
  60.884      79.989      99.112      115.50      126.61      130.49      126.43      115.29      71.033      55.547    
  41.869      31.674      25.034      20.636      17.716      15.686      14.111      12.793      11.670      10.787    
  10.286      10.293      10.796      11.665      12.783      14.113      15.694      17.713      20.637      25.070    
  31.731      41.881      55.470      70.912      85.739      97.372      103.74      103.73      97.381      85.817    
  47.547      37.256      29.401      24.040      20.286      17.716      15.887      14.402      13.043      11.754    
  10.624      9.8266      9.5384      9.8290      10.623      11.751      13.042      14.403      15.878      17.697    
  20.286      24.090      29.492      37.331      47.546      58.814      69.073      76.248      78.851      76.333    
  69.195      58.900      31.688      26.293      22.317      19.344      17.228      15.686      14.402      13.134    
  11.789      10.462      9.3745      8.7589      8.7579      9.3729      10.461      11.789      13.136      14.404    
  15.677      17.191      19.290      22.296      26.358      31.825      38.642      45.840      51.921      55.434    
  55.466      51.967      45.810      38.520      22.922      20.117      17.934      16.328      15.131      14.111    
  13.043      11.789      10.399      9.0948      8.1597      7.8184      8.1577      9.0942      10.399      11.789    
  13.050      14.127      15.132      16.278      17.834      20.030      22.925      26.430      30.442      34.371    
  37.295      38.378      37.267      34.288      30.313      26.328      17.788      16.240      15.093      14.271    
  13.578      12.793      11.754      10.462      9.0948      7.9361      7.2657      7.2630      7.9331      9.0967    
  10.462      11.749      12.799      13.615      14.323      15.107      16.171      17.660      19.585      21.791    
  23.997      25.861      26.935      26.898      25.779      23.939      21.818      19.695      14.528      13.762    
  13.260      12.878      12.404      11.670      10.624      9.3745      8.1597      7.2657      6.9338      7.2630    
  8.1597      9.3749      10.614      11.651      12.404      12.931      13.359      13.845      14.525      15.471    
  16.661      17.975      19.198      20.063      20.359      20.033      19.197      18.052      16.791      15.570    
  12.504      12.290      12.160      11.938      11.500      10.787      9.8266      8.7589      7.8184      7.2630    
  7.2630      7.8186      8.7598      9.8271      10.777      11.468      11.895      12.150      12.354      12.624    
  13.037      13.616      14.326      15.064      15.682      16.034      16.044      15.722      15.133      14.379    
  13.596      12.935      11.392      11.436      11.413      11.232      10.863      10.286      9.5384      8.7579    
  8.1577      7.9331      8.1597      8.7598      9.5456      10.301      10.864      11.182      11.312      11.350    