AuAl2 soc                               
   6.50000000000000     
     0.000000    0.458506    0.458506
     0.458506    0.000000    0.458506
     0.458506    0.458506    0.000000
   Au   Al
     1     2
Direct
  0.000000  0.000000  0.000000
  0.250000  0.250000  0.250000
  0.750000  0.750000  0.750000
 
   32   32   32
 0.24349690257E+03 0.23280917595E+03 0.20576130590E+03 0.17249966141E+03 0.13968062224E+03
 0.10815221822E+03 0.77859243468E+02 0.51817641281E+02 0.33830562138E+02 0.23918770370E+02
 0.18271756068E+02 0.14655439789E+02 0.12481248154E+02 0.11391718084E+02 0.10727414712E+02
 0.10085766916E+02 0.97700393334E+01 0.10085766916E+02 0.10727414712E+02 0.11391718084E+02
 0.12481248154E+02 0.14655439789E+02 0.18271756068E+02 0.23918770370E+02 0.33830562138E+02
 0.51817641281E+02 0.77859243468E+02 0.10815221822E+03 0.13968062224E+03 0.17249966141E+03
 0.20576130590E+03 0.23280917595E+03 0.23280917595E+03 0.21422435602E+03 0.18461542145E+03
 0.15245834519E+03 0.12114061303E+03 0.90650851515E+02 0.62585451774E+02 0.40872649867E+02
 0.27668575460E+02 0.20589670355E+02 0.16208401128E+02 0.13408086965E+02 0.11829479033E+02
 0.11031473371E+02 0.10412977992E+02 0.98988462510E+01 0.98759894320E+01 0.10382473857E+02
 0.11043931710E+02 0.11863872565E+02 0.13407683692E+02 0.16175258378E+02 0.20578747647E+02
 0.27695828579E+02 0.40899826220E+02 0.62605714474E+02 0.90705273473E+02 0.12120056219E+03
 0.15237135633E+03 0.18427670752E+03 0.21378631763E+03 0.23260452462E+03 0.20576130590E+03
 0.18461542146E+03 0.15715066702E+03 0.12815115164E+03 0.99017045944E+02 0.71032613953E+02
 0.47546921243E+02 0.31687671572E+02 0.22921572134E+02 0.17788354788E+02 0.14528216017E+02
 0.12503525621E+02 0.11392267431E+02 0.10708898071E+02 0.10138545476E+02 0.98736587976E+01
 0.10132188925E+02 0.10708521167E+02 0.11398760294E+02 0.12504306445E+02 0.14521791490E+02
 0.17787667475E+02 0.22926922708E+02 0.31685305873E+02 0.47549970443E+02 0.71085868536E+02
 0.99116647959E+02 0.12818161979E+03 0.15697555497E+03 0.18426223917E+03 0.20546505816E+03
 0.21378631762E+03 0.17249966141E+03 0.15245834520E+03 0.12815115164E+03 0.10193188108E+03
 0.75624038258E+02 0.52276967997E+02 0.35192421730E+02 0.25072716736E+02 0.19264841734E+02
 0.15616715888E+02 0.13279172752E+02 0.11868576863E+02 0.11030844321E+02 0.10397202687E+02
 0.99634820507E+01 0.99744793559E+01 0.10413593286E+02 0.11027504346E+02 0.11849736776E+02
 0.13273449835E+02 0.15634860121E+02 0.19280432241E+02 0.25055629270E+02 0.35152065121E+02
 0.52257497062E+02 0.75655399371E+02 0.10199557403E+03 0.12819949826E+03 0.15246285713E+03
 0.17247565628E+03 0.18426223915E+03 0.18427670751E+03 0.13968062224E+03 0.12114061303E+03
 0.99017045940E+02 0.75624038246E+02 0.53983166435E+02 0.37231677539E+02 0.26629495351E+02
 0.20443506437E+02 0.16557257677E+02 0.14034983398E+02 0.12381970632E+02 0.11347985606E+02
 0.10640025652E+02 0.10105525299E+02 0.98831399079E+01 0.10104182085E+02 0.10640158985E+02
 0.11349732928E+02 0.12381954156E+02 0.14032942906E+02 0.16558789909E+02 0.20450437031E+02
 0.26629010037E+02 0.37203798122E+02 0.53926244912E+02 0.75571212998E+02 0.99018339696E+02
 0.12121919619E+03 0.13980280387E+03 0.15246285710E+03 0.15697555494E+03 0.15237135631E+03
 0.10815221822E+03 0.90650851508E+02 0.71032613926E+02 0.52276967959E+02 0.37231677514E+02
 0.27199572439E+02 0.21081632513E+02 0.17167424635E+02 0.14632239419E+02 0.12884128320E+02
 0.11663733436E+02 0.10810654416E+02 0.10194178747E+02 0.98283211685E+01 0.98226076570E+01
 0.10185740270E+02 0.10812945396E+02 0.11674443634E+02 0.12886630475E+02 0.14620802399E+02
 0.17162733080E+02 0.21108619118E+02 0.27247165863E+02 0.37246862146E+02 0.52213546122E+02
 0.70906878720E+02 0.90536298986E+02 0.10810971109E+03 0.12121919618E+03 0.12819949822E+03
 0.12818161976E+03 0.12120056218E+03 0.77859243468E+02 0.62585451748E+02 0.47546921189E+02
 0.35192421667E+02 0.26629495305E+02 0.21081632494E+02 0.17368725513E+02 0.14932277882E+02
 0.13231706276E+02 0.11952236061E+02 0.10961135973E+02 0.10208635205E+02 0.97120754109E+01
 0.95362972972E+01 0.97154289708E+01 0.10209065633E+02 0.10958483088E+02 0.11952526068E+02
 0.13233336138E+02 0.14927325914E+02 0.17365604920E+02 0.21110096057E+02 0.26703120359E+02
 0.35270369495E+02 0.47554806308E+02 0.62484107906E+02 0.77684440279E+02 0.90536299011E+02
 0.99018339713E+02 0.10199557403E+03 0.99116647960E+02 0.90705273479E+02 0.51817641281E+02
 0.40872649827E+02 0.31687671503E+02 0.25072716664E+02 0.20443506386E+02 0.17167424611E+02
 0.14932277876E+02 0.13346144164E+02 0.12110902504E+02 0.11074362026E+02 0.10208259201E+02
 0.95624501722E+01 0.92150669155E+01 0.92183274791E+01 0.95666339981E+01 0.10206180481E+02
 0.11070219688E+02 0.12113351656E+02 0.13348908559E+02 0.14915298875E+02 0.17129140555E+02
 0.20426069658E+02 0.25134000100E+02 0.31832335722E+02 0.41017248332E+02 0.51847363497E+02
 0.62484107970E+02 0.70906878810E+02 0.75571213083E+02 0.75655399439E+02 0.71085868589E+02
 0.62605714507E+02 0.33830562138E+02 0.27668575414E+02 0.22921572066E+02 0.19264841670E+02
 0.16557257635E+02 0.14632239402E+02 0.13231706275E+02 0.12110902508E+02 0.11112677203E+02
 0.10202027029E+02 0.94393366601E+01 0.89254891719E+01 0.87433074809E+01 0.89245286938E+01
 0.94392340634E+01 0.10203040817E+02 0.11114978564E+02 0.12115647899E+02 0.13230930718E+02
 0.14602745641E+02 0.16486305405E+02 0.19190381931E+02 0.22922920218E+02 0.27787728015E+02
 0.34007455109E+02 0.41017248418E+02 0.47554806456E+02 0.52213546294E+02 0.53926245077E+02
 0.52257497201E+02 0.47549970544E+02 0.40899826273E+02 0.23918770370E+02 0.20589670314E+02
 0.17788354731E+02 0.15616715838E+02 0.14034983368E+02 0.12884128311E+02 0.11952236068E+02
 0.11074362039E+02 0.10202027039E+02 0.93902361257E+01 0.87493019790E+01 0.83910162699E+01
 0.83881967075E+01 0.87465421285E+01 0.93929739565E+01 0.10204434320E+02 0.11074336636E+02
 0.11964678064E+02 0.12915656649E+02 0.14049926685E+02 0.15559755453E+02 0.17656572994E+02
 0.20462012429E+02 0.23890431791E+02 0.27787728094E+02 0.31832335880E+02 0.35270369711E+02
 0.37246862384E+02 0.37203798346E+02 0.35152065304E+02 0.31685305998E+02 0.27695828638E+02
 0.18271756068E+02 0.16208401095E+02 0.14528215974E+02 0.13279172716E+02 0.12381970613E+02
 0.11663733438E+02 0.10961135990E+02 0.10208259224E+02 0.94393366825E+01 0.87493019937E+01
 0.82595416763E+01 0.80779346413E+01 0.82546125806E+01 0.87486529886E+01 0.94421341483E+01
 0.10204315783E+02 0.10958034438E+02 0.11692929033E+02 0.12456613022E+02 0.13352985713E+02
 0.14522159929E+02 0.16090710705E+02 0.18102114062E+02 0.20462012479E+02 0.22922920340E+02
 0.25134000292E+02 0.26703120602E+02 0.27247166121E+02 0.26629010273E+02 0.25055629455E+02
 0.22926922826E+02 0.20578747700E+02 0.14655439789E+02 0.13408086942E+02 0.12503525592E+02
 0.11868576840E+02 0.11347985600E+02 0.10810654430E+02 0.10208635235E+02 0.95624502116E+01
 0.89254892136E+01 0.83910163062E+01 0.80779346634E+01 0.80760565869E+01 0.83885937375E+01
 0.89265095388E+01 0.95619110666E+01 0.10194632647E+02 0.10784557443E+02 0.11341296734E+02
 0.11923593710E+02 0.12621907855E+02 0.13524331071E+02 0.14683149849E+02 0.16090710722E+02
 0.17656573055E+02 0.19190382052E+02 0.20426069840E+02 0.21110096279E+02 0.21108619347E+02
 0.20450437234E+02 0.19280432393E+02 0.17787667567E+02 0.16175258417E+02 0.12481248154E+02
 0.11829479020E+02 0.11392267416E+02 0.11030844313E+02 0.10640025661E+02 0.10194178776E+02
 0.97120754590E+01 0.92150669780E+01 0.87433075495E+01 0.83881967718E+01 0.82546126295E+01
 0.83885937627E+01 0.87444991790E+01 0.92188923384E+01 0.97113706470E+01 0.10165535951E+02
 0.10570016644E+02 0.10957236934E+02 0.11393543530E+02 0.11946102589E+02 0.12654658440E+02
 0.13524331063E+02 0.14522159935E+02 0.15559755495E+02 0.16486305497E+02 0.17129140696E+02
 0.17365605090E+02 0.17162733252E+02 0.16558790054E+02 0.15634860223E+02 0.14521791549E+02
 0.13407683716E+02 0.11391718084E+02 0.11031473366E+02 0.10708898067E+02 0.10397202693E+02
 0.10105525323E+02 0.98283212158E+01 0.95362973685E+01 0.92183275692E+01 0.89245287915E+01
 0.87465422197E+01 0.87486530600E+01 0.89265095826E+01 0.92188923554E+01 0.95468985294E+01
 0.98513688335E+01 0.10109486329E+02 0.10339427567E+02 0.10593516278E+02 0.10927572871E+02
 0.11375755521E+02 0.11946102569E+02 0.12621907828E+02 0.13352985699E+02 0.14049926703E+02
 0.14602745701E+02 0.14915298973E+02 0.14927326031E+02 0.14620802511E+02 0.14032942995E+02
 0.13273449894E+02 0.12504306476E+02 0.11863872577E+02 0.10727414712E+02 0.10412977992E+02
 0.10138545482E+02 0.99634820679E+01 0.98831399455E+01 0.98226077216E+01 0.97154290630E+01
 0.95666341101E+01 0.94392341801E+01 0.93929740607E+01 0.94421342261E+01 0.95619111126E+01
 0.97113706652E+01 0.98513688356E+01 0.99576253886E+01 0.10037412986E+02 0.10133238561E+02
 0.10296239870E+02 0.10558382883E+02 0.10927572852E+02 0.11393543495E+02 0.11923593672E+02
 0.12456613001E+02 0.12915656659E+02 0.13230930765E+02 0.13348908634E+02 0.13233336223E+02
 0.12886630552E+02 0.12381954211E+02 0.11849736807E+02 0.11398760308E+02 0.11043931714E+02
 0.10085766916E+02 0.98988462529E+01 0.98736588055E+01 0.99744793774E+01 0.10104182129E+02
 0.10185740344E+02 0.10209065734E+02 0.10206180598E+02 0.10203040931E+02 0.10204434413E+02
 0.10204315845E+02 0.10194632676E+02 0.10165535954E+02 0.10109486321E+02 0.10037412979E+02
 0.99842650052E+01 0.99928205860E+01 0.10093304222E+02 0.10296239857E+02 0.10593516250E+02
 0.10957236899E+02 0.11341296706E+02 0.11692929028E+02 0.11964678092E+02 0.12115647960E+02
 0.12113351738E+02 0.11952526151E+02 0.11674443702E+02 0.11349732971E+02 0.11027504367E+02
 0.10708521174E+02 0.10382473858E+02 0.97700393334E+01 0.98759894332E+01 0.10132188932E+02
 0.10413593307E+02 0.10640159029E+02 0.10812945468E+02 0.10958483182E+02 0.11070219790E+02
 0.11114978654E+02 0.11074336699E+02 0.10958034467E+02 0.10784557441E+02 0.10570016624E+02
 0.10339427545E+02 0.10133238547E+02 0.99928205817E+01 0.99435423228E+01 0.99928205817E+01
 0.10133238547E+02 0.10339427545E+02 0.10570016624E+02 0.10784557441E+02 0.10958034467E+02
 0.11074336699E+02 0.11114978654E+02 0.11070219790E+02 0.10958483182E+02 0.10812945468E+02
 0.10640159029E+02 0.10413593307E+02 0.10132188932E+02 0.98759894332E+01 0.10085766916E+02
 0.10382473858E+02 0.10708521174E+02 0.11027504367E+02 0.11349732971E+02 0.11674443702E+02
 0.11952526151E+02 0.12113351738E+02 0.12115647960E+02 0.11964678092E+02 0.11692929028E+02
 0.11341296706E+02 0.10957236899E+02 0.10593516250E+02 0.10296239857E+02 0.10093304222E+02
 0.99928205860E+01 0.99842650052E+01 0.10037412979E+02 0.10109486321E+02 0.10165535954E+02
 0.10194632676E+02 0.10204315845E+02 0.10204434413E+02 0.10203040931E+02 0.10206180598E+02
 0.10209065734E+02 0.10185740344E+02 0.10104182129E+02 0.99744793774E+01 0.98736588055E+01
 0.98988462529E+01 0.10727414712E+02 0.11043931714E+02 0.11398760308E+02 0.11849736807E+02
 0.12381954211E+02 0.12886630552E+02 0.13233336223E+02 0.13348908634E+02 0.13230930765E+02
 0.12915656659E+02 0.12456613001E+02 0.11923593672E+02 0.11393543495E+02 0.10927572852E+02
 0.10558382883E+02 0.10296239870E+02 0.10133238561E+02 0.10037412986E+02 0.99576253886E+01
 0.98513688356E+01 0.97113706652E+01 0.95619111126E+01 0.94421342261E+01 0.93929740607E+01
 0.94392341801E+01 0.95666341101E+01 0.97154290630E+01 0.98226077216E+01 0.98831399455E+01
 0.99634820679E+01 0.10138545482E+02 0.10412977992E+02 0.11391718084E+02 0.11863872577E+02
 0.12504306476E+02 0.13273449894E+02 0.14032942995E+02 0.14620802511E+02 0.14927326031E+02
 0.14915298973E+02 0.14602745701E+02 0.14049926703E+02 0.13352985699E+02 0.12621907828E+02
 0.11946102569E+02 0.11375755521E+02 0.10927572871E+02 0.10593516278E+02 0.10339427567E+02
 0.10109486329E+02 0.98513688335E+01 0.95468985294E+01 0.92188923554E+01 0.89265095826E+01
 0.87486530600E+01 0.87465422197E+01 0.89245287915E+01 0.92183275692E+01 0.95362973685E+01
 0.98283212158E+01 0.10105525323E+02 0.10397202693E+02 0.10708898067E+02 0.11031473366E+02
 0.12481248154E+02 0.13407683716E+02 0.14521791549E+02 0.15634860223E+02 0.16558790054E+02
 0.17162733252E+02 0.17365605090E+02 0.17129140696E+02 0.16486305497E+02 0.15559755495E+02
 0.14522159935E+02 0.13524331063E+02 0.12654658440E+02 0.11946102589E+02 0.11393543530E+02
 0.10957236934E+02 0.10570016644E+02 0.10165535951E+02 0.97113706470E+01 0.92188923384E+01
 0.87444991790E+01 0.83885937627E+01 0.82546126295E+01 0.83881967718E+01 0.87433075495E+01
 0.92150669780E+01 0.97120754590E+01 0.10194178776E+02 0.10640025661E+02 0.11030844313E+02
 0.11392267416E+02 0.11829479020E+02 0.14655439789E+02 0.16175258417E+02 0.17787667567E+02
 0.19280432393E+02 0.20450437234E+02 0.21108619347E+02 0.21110096279E+02 0.20426069840E+02
 0.19190382052E+02 0.17656573055E+02 0.16090710722E+02 0.14683149849E+02 0.13524331071E+02
 0.12621907855E+02 0.11923593710E+02 0.11341296734E+02 0.10784557443E+02 0.10194632647E+02
 0.95619110666E+01 0.89265095388E+01 0.83885937375E+01 0.80760565869E+01 0.80779346634E+01
 0.83910163062E+01 0.89254892136E+01 0.95624502116E+01 0.10208635235E+02 0.10810654430E+02
 0.11347985600E+02 0.11868576840E+02 0.12503525592E+02 0.13408086942E+02 0.18271756068E+02
 0.20578747700E+02 0.22926922826E+02 0.25055629455E+02 0.26629010273E+02 0.27247166121E+02
 0.26703120602E+02 0.25134000292E+02 0.22922920340E+02 0.20462012479E+02 0.18102114062E+02
 0.16090710705E+02 0.14522159929E+02 0.13352985713E+02 0.12456613022E+02 0.11692929033E+02
 0.10958034438E+02 0.10204315783E+02 0.94421341483E+01 0.87486529886E+01 0.82546125806E+01
 0.80779346413E+01 0.82595416763E+01 0.87493019937E+01 0.94393366825E+01 0.10208259224E+02
 0.10961135990E+02 0.11663733438E+02 0.12381970613E+02 0.13279172716E+02 0.14528215974E+02
 0.16208401095E+02 0.23918770370E+02 0.27695828638E+02 0.31685305998E+02 0.35152065304E+02
 0.37203798346E+02 0.37246862384E+02 0.35270369711E+02 0.31832335880E+02 0.27787728094E+02
 0.23890431791E+02 0.20462012429E+02 0.17656572994E+02 0.15559755453E+02 0.14049926685E+02
 0.12915656649E+02 0.11964678064E+02 0.11074336636E+02 0.10204434320E+02 0.93929739565E+01
 0.87465421285E+01 0.83881967075E+01 0.83910162699E+01 0.87493019790E+01 0.93902361257E+01
 0.10202027039E+02 0.11074362039E+02 0.11952236068E+02 0.12884128311E+02 0.14034983368E+02
 0.15616715838E+02 0.17788354731E+02 0.20589670314E+02 0.33830562138E+02 0.40899826273E+02
 0.47549970544E+02 0.52257497201E+02 0.53926245077E+02 0.52213546294E+02 0.47554806456E+02
 0.41017248418E+02 0.34007455109E+02 0.27787728015E+02 0.22922920218E+02 0.19190381931E+02
 0.16486305405E+02 0.14602745641E+02 0.13230930718E+02 0.12115647899E+02 0.11114978564E+02
 0.10203040817E+02 0.94392340634E+01 0.89245286938E+01 0.87433074809E+01 0.89254891719E+01
 0.94393366601E+01 0.10202027029E+02 0.11112677203E+02 0.12110902508E+02 0.13231706275E+02
 0.14632239402E+02 0.16557257635E+02 0.19264841670E+02 0.22921572066E+02 0.27668575414E+02
 0.51817641281E+02 0.62605714507E+02 0.71085868589E+02 0.75655399439E+02 0.75571213083E+02
 0.70906878810E+02 0.62484107970E+02 0.51847363497E+02 0.41017248332E+02 0.31832335722E+02
 0.25134000100E+02 0.20426069658E+02 0.17129140555E+02 0.14915298875E+02 0.13348908559E+02
 0.12113351656E+02 0.11070219688E+02 0.10206180481E+02 0.95666339981E+01 0.92183274791E+01
 0.92150669155E+01 0.95624501722E+01 0.10208259201E+02 0.11074362026E+02 0.12110902504E+02
 0.13346144164E+02 0.14932277876E+02 0.17167424611E+02 0.20443506386E+02 0.25072716664E+02
 0.31687671503E+02 0.40872649827E+02 0.77859243468E+02 0.90705273479E+02 0.99116647960E+02
 0.10199557403E+03 0.99018339713E+02 0.90536299011E+02 0.77684440279E+02 0.62484107906E+02
 0.47554806308E+02 0.35270369495E+02 0.26703120359E+02 0.21110096057E+02 0.17365604920E+02
 0.14927325914E+02 0.13233336138E+02 0.11952526068E+02 0.10958483088E+02 0.10209065633E+02
 0.97154289708E+01 0.95362972972E+01 0.97120754109E+01 0.10208635205E+02 0.10961135973E+02
 0.11952236061E+02 0.13231706276E+02 0.14932277882E+02 0.17368725513E+02 0.21081632494E+02
 0.26629495305E+02 0.35192421667E+02 0.47546921189E+02 0.62585451748E+02 0.10815221822E+03
 0.12120056218E+03 0.12818161976E+03 0.12819949822E+03 0.12121919618E+03 0.10810971109E+03
 0.90536298986E+02 0.70906878720E+02 0.52213546122E+02 0.37246862146E+02 0.27247165863E+02
 0.21108619118E+02 0.17162733080E+02 0.14620802399E+02 0.12886630475E+02 0.11674443634E+02
 0.10812945396E+02 0.10185740270E+02 0.98226076570E+01 0.98283211685E+01 0.10194178747E+02
 0.10810654416E+02 0.11663733436E+02 0.12884128320E+02 0.14632239419E+02 0.17167424635E+02
 0.21081632513E+02 0.27199572439E+02 0.37231677514E+02 0.52276967959E+02 0.71032613926E+02
 0.90650851508E+02 0.13968062224E+03 0.15237135631E+03 0.15697555494E+03 0.15246285710E+03
 0.13980280387E+03 0.12121919619E+03 0.99018339696E+02 0.75571212998E+02 0.53926244912E+02
 0.37203798122E+02 0.26629010037E+02 0.20450437031E+02 0.16558789909E+02 0.14032942906E+02
 0.12381954156E+02 0.11349732928E+02 0.10640158985E+02 0.10104182085E+02 0.98831399079E+01
 0.10105525299E+02 0.10640025652E+02 0.11347985606E+02 0.12381970632E+02 0.14034983398E+02
 0.16557257677E+02 0.20443506437E+02 0.26629495351E+02 0.37231677539E+02 0.53983166435E+02
 0.75624038246E+02 0.99017045940E+02 0.12114061303E+03 0.17249966141E+03 0.18427670751E+03
 0.18426223915E+03 0.17247565628E+03 0.15246285713E+03 0.12819949826E+03 0.10199557403E+03
 0.75655399371E+02 0.52257497062E+02 0.35152065121E+02 0.25055629270E+02 0.19280432241E+02
 0.15634860121E+02 0.13273449835E+02 0.11849736776E+02 0.11027504346E+02 0.10413593286E+02
 0.99744793559E+01 0.99634820507E+01 0.10397202687E+02 0.11030844321E+02 0.11868576863E+02
 0.13279172752E+02 0.15616715888E+02 0.19264841734E+02 0.25072716736E+02 0.35192421730E+02
 0.52276967997E+02 0.75624038258E+02 0.10193188108E+03 0.12815115164E+03 0.15245834520E+03
 0.20576130590E+03 0.21378631762E+03 0.20546505816E+03 0.18426223917E+03 0.15697555497E+03
 0.12818161979E+03 0.99116647959E+02 0.71085868536E+02 0.47549970443E+02 0.31685305873E+02
 0.22926922708E+02 0.17787667475E+02 0.14521791490E+02 0.12504306445E+02 0.11398760294E+02
 0.10708521167E+02 0.10132188925E+02 0.98736587976E+01 0.10138545476E+02 0.10708898071E+02
 0.11392267431E+02 0.12503525621E+02 0.14528216017E+02 0.17788354788E+02 0.22921572134E+02
 0.31687671572E+02 0.47546921243E+02 0.71032613953E+02 0.99017045944E+02 0.12815115164E+03
 0.15715066702E+03 0.18461542146E+03 0.23280917595E+03 0.23260452462E+03 0.21378631763E+03
 0.18427670752E+03 0.15237135633E+03 0.12120056219E+03 0.90705273473E+02 0.62605714474E+02
 0.40899826220E+02 0.27695828579E+02 0.20578747647E+02 0.16175258378E+02 0.13407683692E+02
 0.11863872565E+02 0.11043931710E+02 0.10382473857E+02 0.98759894320E+01 0.98988462510E+01
 0.10412977992E+02 0.11031473371E+02 0.11829479033E+02 0.13408086965E+02 0.16208401128E+02
 0.20589670355E+02 0.27668575460E+02 0.40872649867E+02 0.62585451774E+02 0.90650851515E+02
 0.12114061303E+03 0.15245834519E+03 0.18461542145E+03 0.21422435602E+03 0.23280917595E+03
 0.21422435602E+03 0.18461542146E+03 0.15245834520E+03 0.12114061303E+03 0.90650851508E+02
 0.62585451748E+02 0.40872649827E+02 0.27668575414E+02 0.20589670314E+02 0.16208401095E+02
 0.13408086942E+02 0.11829479020E+02 0.11031473366E+02 0.10412977992E+02 0.98988462529E+01
 0.98759894332E+01 0.10382473858E+02 0.11043931714E+02 0.11863872577E+02 0.13407683716E+02
 0.16175258417E+02 0.20578747700E+02 0.27695828638E+02 0.40899826273E+02 0.62605714507E+02
 0.90705273479E+02 0.12120056218E+03 0.15237135631E+03 0.18427670751E+03 0.21378631762E+03
 0.23260452462E+03 0.21422435602E+03 0.19110164438E+03 0.16160958809E+03 0.13132788501E+03
 0.10157302727E+03 0.73108096727E+02 0.49012719084E+02 0.32562198763E+02 0.23452980221E+02
 0.18167864731E+02 0.14806612500E+02 0.12725298675E+02 0.11597999907E+02 0.10910436060E+02
 0.10323745155E+02 0.10045674651E+02 0.10314658675E+02 0.10909954918E+02 0.11607248693E+02
 0.12726411512E+02 0.14797903497E+02 0.18167079323E+02 0.23458821999E+02 0.32557384486E+02
 0.49025369588E+02 0.73207924910E+02 0.10173803152E+03 0.13135437264E+03 0.16127543967E+03
 0.19047049955E+03 0.21370501290E+03 0.22299940146E+03 0.18461542145E+03 0.16160958809E+03
 0.13493014794E+03 0.10732666551E+03 0.80034714764E+02 0.55547272080E+02 0.37256323484E+02
 0.26293387453E+02 0.20116656083E+02 0.16239848347E+02 0.13761635389E+02 0.12289700446E+02
 0.11436259202E+02 0.10778017793E+02 0.10309729165E+02 0.10320274507E+02 0.10794513354E+02
 0.11434185861E+02 0.12270614794E+02 0.13754066531E+02 0.16258326743E+02 0.20132760418E+02
 0.26270468319E+02 0.37216267842E+02 0.55571941330E+02 0.80165781785E+02 0.10746999254E+03
 0.13490836922E+03 0.16134932708E+03 0.18426974290E+03 0.19830940101E+03 0.19846954239E+03
 0.15245834519E+03 0.13132788501E+03 0.10732666551E+03 0.82468377787E+02 0.59194753883E+02
 0.40659354336E+02 0.28668132771E+02 0.21824224126E+02 0.17573812288E+02 0.14818609572E+02
 0.13032811731E+02 0.11949673808E+02 0.11213103859E+02 0.10627823363E+02 0.10373035627E+02
 0.10623149369E+02 0.11213131912E+02 0.11954655724E+02 0.13032634876E+02 0.14813170451E+02
 0.17575543071E+02 0.21830958704E+02 0.28653749744E+02 0.40612931593E+02 0.59157075716E+02
 0.82499890231E+02 0.10743518024E+03 0.13145255790E+03 0.15253600258E+03 0.16769773480E+03
 0.17332138988E+03 0.16767277940E+03 0.12114061303E+03 0.10157302727E+03 0.80034714758E+02
 0.59194753873E+02 0.41928267267E+02 0.30070035570E+02 0.22992341288E+02 0.18571707234E+02
 0.15730883383E+02 0.13786884867E+02 0.12455591090E+02 0.11545498983E+02 0.10871573514E+02
 0.10448308856E+02 0.10437837376E+02 0.10857375980E+02 0.11551055528E+02 0.12471938198E+02
 0.13787117158E+02 0.15715762242E+02 0.18570935793E+02 0.23013338304E+02 0.30072596152E+02
 0.41873187408E+02 0.59106851098E+02 0.79993391083E+02 0.10163562912E+03 0.12128539119E+03
 0.13647628777E+03 0.14485467694E+03 0.14479575391E+03 0.13633277280E+03 0.90650851515E+02
 0.73108096727E+02 0.55547272063E+02 0.40659354313E+02 0.30070035555E+02 0.23424486237E+02
 0.19106696126E+02 0.16307786422E+02 0.14375522786E+02 0.12936010909E+02 0.11835545440E+02
 0.10992892557E+02 0.10414130246E+02 0.10201265373E+02 0.10416692320E+02 0.10992948280E+02
 0.11833417234E+02 0.12936638281E+02 0.14377090008E+02 0.16305326804E+02 0.19110127403E+02
 0.23453712127E+02 0.30117684279E+02 0.40674710934E+02 0.55484418693E+02 0.72989130354E+02
 0.90554271062E+02 0.10543326751E+03 0.11535227676E+03 0.11881867988E+03 0.11533552615E+03
 0.10545786509E+03 0.62585451774E+02 0.49012719084E+02 0.37256323458E+02 0.28668132738E+02
 0.22992341263E+02 0.19106696117E+02 0.16507670693E+02 0.14683246532E+02 0.13260237193E+02
 0.12067030879E+02 0.11058778934E+02 0.10282237746E+02 0.98506825168E+01 0.98562203450E+01
 0.10289121504E+02 0.11055120219E+02 0.12059829115E+02 0.13261713885E+02 0.14686126023E+02
 0.16497984426E+02 0.19100215903E+02 0.23029992886E+02 0.28759228986E+02 0.37343921336E+02
 0.49018499757E+02 0.62487034435E+02 0.75499993610E+02 0.85701835364E+02 0.91293666173E+02
 0.91339525353E+02 0.85824787195E+02 0.75649543550E+02 0.40872649867E+02 0.32562198763E+02
 0.26293387424E+02 0.21824224092E+02 0.18571707211E+02 0.16307786413E+02 0.14683246531E+02
 0.13374656748E+02 0.12190133450E+02 0.11081795075E+02 0.10125491879E+02 0.94643541829E+01
 0.92272609209E+01 0.94646123872E+01 0.10125051845E+02 0.11080944638E+02 0.12191512256E+02
 0.13378102960E+02 0.14677902635E+02 0.16278181048E+02 0.18524494581E+02 0.21806194295E+02
 0.26360215949E+02 0.32710926306E+02 0.41015736992E+02 0.50286299995E+02 0.58812166927E+02
 0.64825182860E+02 0.67033648399E+02 0.64922741411E+02 0.58895121261E+02 0.50251239942E+02
 0.27668575460E+02 0.23452980221E+02 0.20116656058E+02 0.17573812260E+02 0.15730883365E+02
 0.14375522782E+02 0.13260237198E+02 0.12190133455E+02 0.11087018217E+02 0.10018354120E+02
 0.91530444063E+01 0.86658929492E+01 0.86641915911E+01 0.91508447756E+01 0.10018905495E+02
 0.11089321753E+02 0.12194872890E+02 0.13269297805E+02 0.14375192759E+02 0.15689744719E+02
 0.17482662039E+02 0.20029118134E+02 0.23454970257E+02 0.27787773135E+02 0.33065251536E+02
 0.38646951707E+02 0.43394767197E+02 0.46145290938E+02 0.46150264121E+02 0.43371320286E+02
 0.38540595034E+02 0.32901729911E+02 0.20589670355E+02 0.18167864731E+02 0.16239848327E+02
 0.14818609551E+02 0.13786884857E+02 0.12936010912E+02 0.12067030891E+02 0.11081795090E+02
 0.10018354130E+02 0.90341959203E+01 0.83291871685E+01 0.80692668148E+01 0.83245029378E+01
 0.90333004275E+01 0.10021208126E+02 0.11080866333E+02 0.12069082551E+02 0.12961521830E+02
 0.13831972233E+02 0.14833137241E+02 0.16170805343E+02 0.18028039793E+02 0.20463800809E+02
 0.23340851820E+02 0.26430178312E+02 0.29376673611E+02 0.31540506584E+02 0.32312145535E+02
 0.31456099828E+02 0.29255496419E+02 0.26352008250E+02 0.23369372292E+02 0.16208401128E+02
 0.14806612500E+02 0.13761635375E+02 0.13032811717E+02 0.12455591086E+02 0.11835545450E+02
 0.11058778956E+02 0.10125491908E+02 0.91530444337E+01 0.83291871865E+01 0.78492626976E+01
 0.78458666566E+01 0.83250819868E+01 0.91540172079E+01 0.10123268781E+02 0.11046525766E+02
 0.11833671865E+02 0.12500391720E+02 0.13126508336E+02 0.13844804769E+02 0.14800573088E+02
 0.16092708457E+02 0.17725139074E+02 0.19581248019E+02 0.21420896800E+02 0.22914722453E+02
 0.23742417806E+02 0.23710687886E+02 0.22859450950E+02 0.21423526187E+02 0.19684196352E+02
 0.17883770850E+02 0.13408086965E+02 0.12725298675E+02 0.12289700437E+02 0.11949673801E+02
 0.11545498989E+02 0.10992892580E+02 0.10282237785E+02 0.94643542326E+01 0.86658930014E+01
 0.80692668593E+01 0.78458666830E+01 0.80677553385E+01 0.86651587846E+01 0.94647903035E+01
 0.10276116890E+02 0.10968724758E+02 0.11509897681E+02 0.11941937903E+02 0.12353868189E+02
 0.12853824402E+02 0.13525728103E+02 0.14405058390E+02 0.15467158756E+02 0.16611573301E+02
 0.17658652802E+02 0.18394960420E+02 0.18660832887E+02 0.18414789863E+02 0.17724752894E+02
 0.16715981144E+02 0.15541196237E+02 0.14379490761E+02 0.11829479033E+02 0.11597999907E+02
 0.11436259198E+02 0.11213103862E+02 0.10871573533E+02 0.10414130287E+02 0.98506825795E+01
 0.92272609998E+01 0.86641916756E+01 0.83245030145E+01 0.83250820431E+01 0.86651588125E+01
 0.92307375153E+01 0.98595343757E+01 0.10413927245E+02 0.10829909084E+02 0.11121774784E+02
 0.11350265261E+02 0.11601662583E+02 0.11947707367E+02 0.12424958710E+02 0.13034278635E+02
 0.13735219565E+02 0.14435241486E+02 0.15005031165E+02 0.15328316544E+02 0.15345220741E+02
 0.15053164911E+02 0.14488725851E+02 0.13734361080E+02 0.12935335336E+02 0.12264925961E+02
 0.11031473371E+02 0.10910436060E+02 0.10778017795E+02 0.10627823376E+02 0.10448308890E+02
 0.10201265435E+02 0.98562204350E+01 0.94646124978E+01 0.91508448923E+01 0.90333005331E+01
 0.91540172880E+01 0.94647903510E+01 0.98595343937E+01 0.10223409178E+02 0.10482214754E+02
 0.10629844181E+02 0.10708116526E+02 0.10786829224E+02 0.10928887674E+02 0.11170760929E+02
 0.11521924064E+02 0.11962787959E+02 0.12438807062E+02 0.12869035446E+02 0.13172038525E+02
 0.13287265278E+02 0.13181370783E+02 0.12858030909E+02 0.12379851072E+02 0.11868899539E+02
 0.11452556229E+02 0.11186452103E+02 0.10412977992E+02 0.10323745155E+02 0.10309729171E+02
 0.10373035648E+02 0.10437837422E+02 0.10416692399E+02 0.10289121616E+02 0.10125051978E+02
 0.10018905632E+02 0.10021208244E+02 0.10123268868E+02 0.10276116940E+02 0.10413927266E+02
 0.10482214758E+02 0.10466659513E+02 0.10393135164E+02 0.10318085523E+02 0.10297661939E+02
 0.10366960742E+02 0.10538562455E+02 0.10802200932E+02 0.11120702838E+02 0.11436953276E+02
 0.11692906277E+02 0.11840662849E+02 0.11841754558E+02 0.11679274108E+02 0.11388747932E+02
 0.11064496581E+02 0.10805114478E+02 0.10640268219E+02 0.10524678960E+02 0.98988462510E+01
 0.10045674651E+02 0.10320274515E+02 0.10623149393E+02 0.10857376033E+02 0.10992948368E+02
 0.11055120339E+02 0.11080944776E+02 0.11089321886E+02 0.11080866442E+02 0.11046525839E+02
 0.10968724795E+02 0.10829909095E+02 0.10629844180E+02 0.10393135162E+02 0.10165739446E+02
 0.99941169068E+01 0.99105105736E+01 0.99290283365E+01 0.10042615376E+02 0.10221642130E+02
 0.10423353805E+02 0.10606968698E+02 0.10738443594E+02 0.10787222998E+02 0.10735415644E+02
 0.10599047110E+02 0.10428315777E+02 0.10270238260E+02 0.10133242389E+02 0.10004525370E+02
 0.99039227859E+01 0.98759894320E+01 0.10314658675E+02 0.10794513361E+02 0.11213131936E+02
 0.11551055581E+02 0.11833417320E+02 0.12059829228E+02 0.12191512379E+02 0.12194873001E+02
 0.12069082633E+02 0.11833671912E+02 0.11509897697E+02 0.11121774782E+02 0.10708116522E+02
 0.10318085523E+02 0.99941169108E+01 0.97630832005E+01 0.96365194523E+01 0.96076188024E+01
 0.96488153180E+01 0.97232380454E+01 0.98026535315E+01 0.98702280468E+01 0.99098831151E+01
 0.99078418729E+01 0.98695478502E+01 0.98193434433E+01 0.97694938392E+01 0.97020487457E+01
 0.96066138705E+01 0.95373195410E+01 0.96030534684E+01 0.10382473857E+02 0.10909954918E+02
 0.11434185868E+02 0.11954655749E+02 0.12471938251E+02 0.12936638364E+02 0.13261713989E+02
 0.13378103066E+02 0.13269297891E+02 0.12961521884E+02 0.12500391741E+02 0.11941937903E+02
 0.11350265256E+02 0.10786829227E+02 0.10297661951E+02 0.99105105907E+01 0.96365194643E+01
 0.94665861860E+01 0.93701932331E+01 0.93097598162E+01 0.92617179803E+01 0.92220857794E+01
 0.91947609018E+01 0.91831215297E+01 0.91925012189E+01 0.92267214352E+01 0.92736617252E+01
 0.93073885289E+01 0.93246860571E+01 0.93790621908E+01 0.95568305687E+01 0.99039227865E+01
 0.11043931710E+02 0.11607248693E+02 0.12270614806E+02 0.13032634911E+02 0.13787117223E+02
 0.14377090101E+02 0.14686126130E+02 0.14677902735E+02 0.14375192832E+02 0.13831972272E+02
 0.13126508348E+02 0.12353868189E+02 0.11601662590E+02 0.10928887695E+02 0.10366960776E+02
 0.99290283728E+01 0.96076188294E+01 0.93701932448E+01 0.91734985742E+01 0.89899582526E+01
 0.88194658104E+01 0.86804022022E+01 0.85977948370E+01 0.85952999612E+01 0.86792682417E+01
 0.88219173177E+01 0.89760100502E+01 0.91250669536E+01 0.93141965145E+01 0.96107422132E+01