   3   3   1   0
  0.1764755E+02  0.4214767E-09  0.4214767E-09  0.4214767E-09  0.5000000E-15
  1.000000000000000E-004
  CAR 
 AuAl2 soc                               
     34.21503056     -6.03326927  301      6.64477847      1.00000000
     -6.033  0.0000E+00  0.0000E+00
     -5.899  0.0000E+00  0.0000E+00
     -5.765  0.0000E+00  0.0000E+00
     -5.631  0.0000E+00  0.0000E+00
     -5.497  0.0000E+00  0.0000E+00
     -5.362  0.0000E+00  0.0000E+00
     -5.228  0.0000E+00  0.0000E+00
     -5.094  0.9483E-15  0.1272E-15
     -4.960  0.8621E-12  0.1158E-12
     -4.826  0.3288E-09  0.4422E-10
     -4.692  0.5324E-07  0.7187E-08
     -4.557  0.3736E-05  0.5084E-06
     -4.423  0.1169E-03  0.1619E-04
     -4.289  0.1698E-02  0.2440E-03
     -4.155  0.1207E-01  0.1863E-02
     -4.021  0.4537E-01  0.7949E-02
     -3.887  0.1020E+00  0.2163E-01
     -3.753  0.1612E+00  0.4326E-01
     -3.618  0.2090E+00  0.7129E-01
     -3.484  0.2510E+00  0.1050E+00
     -3.350  0.2871E+00  0.1435E+00
     -3.216  0.3182E+00  0.1862E+00
     -3.082  0.3597E+00  0.2344E+00
     -2.948  0.3936E+00  0.2872E+00
     -2.813  0.4167E+00  0.3431E+00
     -2.679  0.4698E+00  0.4062E+00
     -2.545  0.5254E+00  0.4767E+00
     -2.411  0.5567E+00  0.5513E+00
     -2.277  0.6251E+00  0.6352E+00
     -2.143  0.7545E+00  0.7364E+00
     -2.008  0.8901E+00  0.8558E+00
     -1.874  0.9363E+00  0.9815E+00
     -1.740  0.9267E+00  0.1106E+01
     -1.606  0.9628E+00  0.1235E+01
     -1.472  0.9885E+00  0.1368E+01
     -1.338  0.9394E+00  0.1494E+01
     -1.203  0.1071E+01  0.1637E+01
     -1.069  0.1599E+01  0.1852E+01
     -0.935  0.2633E+01  0.2205E+01
     -0.801  0.4326E+01  0.2786E+01
     -0.667  0.5585E+01  0.3535E+01
     -0.533  0.5155E+01  0.4226E+01
     -0.399  0.4141E+01  0.4782E+01
     -0.264  0.3468E+01  0.5247E+01
     -0.130  0.2787E+01  0.5621E+01
      0.004  0.1818E+01  0.5865E+01
      0.138  0.8861E+00  0.5984E+01
      0.272  0.8171E+00  0.6094E+01
      0.406  0.2157E+01  0.6383E+01
      0.541  0.4263E+01  0.6955E+01
      0.675  0.5422E+01  0.7682E+01
      0.809  0.5393E+01  0.8406E+01
      0.943  0.5274E+01  0.9113E+01
      1.077  0.4651E+01  0.9737E+01
      1.211  0.4117E+01  0.1029E+02
      1.346  0.4846E+01  0.1094E+02
      1.480  0.4754E+01  0.1158E+02
      1.614  0.2855E+01  0.1196E+02
      1.748  0.1371E+01  0.1214E+02
      1.882  0.1050E+01  0.1229E+02
      2.016  0.1170E+01  0.1244E+02
      2.151  0.1288E+01  0.1262E+02
      2.285  0.1194E+01  0.1278E+02
      2.419  0.1036E+01  0.1291E+02
      2.553  0.9103E+00  0.1304E+02
      2.687  0.7653E+00  0.1314E+02
      2.821  0.7198E+00  0.1324E+02
      2.956  0.7665E+00  0.1334E+02
      3.090  0.7490E+00  0.1344E+02
      3.224  0.7456E+00  0.1354E+02
      3.358  0.8369E+00  0.1365E+02
      3.492  0.8766E+00  0.1377E+02
      3.626  0.7943E+00  0.1388E+02
      3.760  0.8211E+00  0.1399E+02
      3.895  0.9397E+00  0.1411E+02
      4.029  0.9210E+00  0.1424E+02
      4.163  0.8069E+00  0.1434E+02
      4.297  0.7557E+00  0.1444E+02
      4.431  0.8940E+00  0.1456E+02
      4.565  0.1160E+01  0.1472E+02
      4.700  0.1245E+01  0.1489E+02
      4.834  0.1173E+01  0.1504E+02
      4.968  0.1147E+01  0.1520E+02
      5.102  0.1261E+01  0.1537E+02
      5.236  0.1333E+01  0.1555E+02
      5.370  0.1171E+01  0.1570E+02
      5.505  0.1050E+01  0.1584E+02
      5.639  0.1113E+01  0.1599E+02
      5.773  0.1155E+01  0.1615E+02
      5.907  0.1085E+01  0.1629E+02
      6.041  0.1005E+01  0.1643E+02
      6.175  0.1031E+01  0.1657E+02
      6.310  0.1030E+01  0.1671E+02
      6.444  0.9168E+00  0.1683E+02
      6.578  0.8473E+00  0.1694E+02
      6.712  0.8696E+00  0.1706E+02
      6.846  0.9197E+00  0.1718E+02
      6.980  0.7894E+00  0.1729E+02
      7.115  0.5719E+00  0.1737E+02
      7.249  0.5345E+00  0.1744E+02
      7.383  0.5873E+00  0.1752E+02
      7.517  0.5712E+00  0.1759E+02
      7.651  0.4528E+00  0.1765E+02
      7.785  0.3370E+00  0.1770E+02
      7.919  0.3138E+00  0.1774E+02
      8.054  0.3836E+00  0.1779E+02
      8.188  0.4913E+00  0.1786E+02
      8.322  0.6041E+00  0.1794E+02
      8.456  0.7492E+00  0.1804E+02
      8.590  0.8627E+00  0.1816E+02
      8.724  0.9650E+00  0.1828E+02
      8.859  0.1134E+01  0.1844E+02
      8.993  0.1299E+01  0.1861E+02
      9.127  0.1414E+01  0.1880E+02
      9.261  0.1509E+01  0.1900E+02
      9.395  0.1601E+01  0.1922E+02
      9.529  0.1760E+01  0.1945E+02
      9.664  0.1808E+01  0.1970E+02
      9.798  0.1640E+01  0.1992E+02
      9.932  0.1306E+01  0.2009E+02
     10.066  0.9033E+00  0.2021E+02
     10.200  0.6968E+00  0.2031E+02
     10.334  0.8451E+00  0.2042E+02
     10.469  0.1335E+01  0.2060E+02
     10.603  0.1880E+01  0.2085E+02
     10.737  0.2040E+01  0.2113E+02
     10.871  0.1864E+01  0.2138E+02
     11.005  0.1736E+01  0.2161E+02
     11.139  0.1704E+01  0.2184E+02
     11.273  0.1688E+01  0.2206E+02
     11.408  0.1670E+01  0.2229E+02
     11.542  0.1787E+01  0.2253E+02
     11.676  0.1936E+01  0.2279E+02
     11.810  0.1961E+01  0.2305E+02
     11.944  0.1973E+01  0.2331E+02
     12.078  0.2057E+01  0.2359E+02
     12.213  0.2059E+01  0.2387E+02
     12.347  0.1955E+01  0.2413E+02
     12.481  0.1892E+01  0.2438E+02
     12.615  0.1899E+01  0.2464E+02
     12.749  0.1875E+01  0.2489E+02
     12.883  0.1760E+01  0.2513E+02
     13.018  0.1700E+01  0.2535E+02
     13.152  0.1753E+01  0.2559E+02
     13.286  0.1778E+01  0.2583E+02
     13.420  0.1619E+01  0.2604E+02
     13.554  0.1483E+01  0.2624E+02
     13.688  0.1590E+01  0.2646E+02
     13.823  0.1794E+01  0.2670E+02
     13.957  0.1819E+01  0.2694E+02
     14.091  0.1700E+01  0.2717E+02
     14.225  0.1618E+01  0.2739E+02
     14.359  0.1550E+01  0.2759E+02
     14.493  0.1456E+01  0.2779E+02
     14.628  0.1386E+01  0.2798E+02
     14.762  0.1457E+01  0.2817E+02
     14.896  0.1557E+01  0.2838E+02
     15.030  0.1621E+01  0.2860E+02
     15.164  0.1728E+01  0.2883E+02
     15.298  0.1780E+01  0.2907E+02
     15.432  0.1859E+01  0.2932E+02
     15.567  0.1984E+01  0.2958E+02
     15.701  0.2062E+01  0.2986E+02
     15.835  0.2142E+01  0.3015E+02
     15.969  0.2027E+01  0.3042E+02
     16.103  0.1742E+01  0.3065E+02
     16.237  0.1624E+01  0.3087E+02
     16.372  0.1689E+01  0.3110E+02
     16.506  0.1754E+01  0.3133E+02
     16.640  0.1647E+01  0.3155E+02
     16.774  0.1424E+01  0.3175E+02
     16.908  0.1247E+01  0.3191E+02
     17.042  0.1177E+01  0.3207E+02
     17.177  0.1254E+01  0.3224E+02
     17.311  0.1361E+01  0.3242E+02
     17.445  0.1339E+01  0.3260E+02
     17.579  0.1350E+01  0.3278E+02
     17.713  0.1421E+01  0.3297E+02
     17.847  0.1474E+01  0.3317E+02
     17.982  0.1610E+01  0.3339E+02
     18.116  0.1735E+01  0.3362E+02
     18.250  0.1655E+01  0.3384E+02
     18.384  0.1602E+01  0.3406E+02
     18.518  0.1805E+01  0.3430E+02
     18.652  0.1993E+01  0.3457E+02
     18.787  0.1862E+01  0.3482E+02
     18.921  0.1684E+01  0.3504E+02
     19.055  0.1837E+01  0.3529E+02
     19.189  0.2124E+01  0.3557E+02
     19.323  0.2212E+01  0.3587E+02
     19.457  0.1915E+01  0.3613E+02
     19.591  0.1517E+01  0.3633E+02
     19.726  0.1506E+01  0.3653E+02
     19.860  0.1890E+01  0.3679E+02
     19.994  0.2156E+01  0.3707E+02
     20.128  0.2023E+01  0.3735E+02
     20.262  0.1875E+01  0.3760E+02
     20.396  0.1815E+01  0.3784E+02
     20.531  0.1683E+01  0.3807E+02
     20.665  0.1543E+01  0.3827E+02
     20.799  0.1601E+01  0.3849E+02
     20.933  0.1841E+01  0.3874E+02
     21.067  0.1904E+01  0.3899E+02
     21.201  0.1871E+01  0.3924E+02
     21.336  0.2031E+01  0.3951E+02
     21.470  0.2239E+01  0.3982E+02
     21.604  0.2417E+01  0.4014E+02
     21.738  0.2464E+01  0.4047E+02
     21.872  0.2314E+01  0.4078E+02
     22.006  0.2200E+01  0.4108E+02
     22.141  0.2159E+01  0.4137E+02
     22.275  0.2029E+01  0.4164E+02
     22.409  0.1800E+01  0.4188E+02
     22.543  0.1686E+01  0.4211E+02
     22.677  0.1725E+01  0.4234E+02
     22.811  0.1749E+01  0.4257E+02
     22.946  0.1825E+01  0.4282E+02
     23.080  0.2023E+01  0.4309E+02
     23.214  0.2073E+01  0.4337E+02
     23.348  0.2023E+01  0.4364E+02
     23.482  0.2117E+01  0.4392E+02
     23.616  0.2176E+01  0.4421E+02
     23.750  0.2264E+01  0.4452E+02
     23.885  0.2365E+01  0.4483E+02
     24.019  0.2322E+01  0.4515E+02
     24.153  0.2282E+01  0.4545E+02
     24.287  0.2281E+01  0.4576E+02
     24.421  0.2320E+01  0.4607E+02
     24.555  0.2401E+01  0.4639E+02
     24.690  0.2422E+01  0.4672E+02
     24.824  0.2300E+01  0.4702E+02
     24.958  0.2149E+01  0.4731E+02
     25.092  0.2072E+01  0.4759E+02
     25.226  0.2038E+01  0.4786E+02
     25.360  0.2128E+01  0.4815E+02
     25.495  0.2407E+01  0.4847E+02
     25.629  0.2584E+01  0.4882E+02
     25.763  0.2472E+01  0.4915E+02
     25.897  0.2152E+01  0.4944E+02
     26.031  0.1841E+01  0.4969E+02
     26.165  0.1679E+01  0.4991E+02
     26.300  0.1750E+01  0.5015E+02
     26.434  0.1956E+01  0.5041E+02
     26.568  0.2053E+01  0.5068E+02
     26.702  0.1843E+01  0.5093E+02
     26.836  0.1634E+01  0.5115E+02
     26.970  0.1654E+01  0.5137E+02
     27.104  0.1725E+01  0.5160E+02
     27.239  0.1812E+01  0.5185E+02
     27.373  0.1981E+01  0.5211E+02
     27.507  0.2015E+01  0.5238E+02
     27.641  0.1888E+01  0.5264E+02
     27.775  0.1858E+01  0.5289E+02
     27.909  0.1950E+01  0.5315E+02
     28.044  0.2084E+01  0.5343E+02
     28.178  0.2127E+01  0.5371E+02
     28.312  0.2123E+01  0.5400E+02
     28.446  0.2269E+01  0.5430E+02
     28.580  0.2477E+01  0.5463E+02
     28.714  0.2486E+01  0.5497E+02
     28.849  0.2376E+01  0.5529E+02
     28.983  0.2365E+01  0.5560E+02
     29.117  0.2281E+01  0.5591E+02
     29.251  0.2021E+01  0.5618E+02
     29.385  0.1853E+01  0.5643E+02
     29.519  0.1948E+01  0.5669E+02
     29.654  0.2236E+01  0.5699E+02
     29.788  0.2521E+01  0.5733E+02
     29.922  0.2594E+01  0.5768E+02
     30.056  0.2406E+01  0.5800E+02
     30.190  0.2064E+01  0.5828E+02
     30.324  0.1787E+01  0.5852E+02
     30.459  0.1593E+01  0.5873E+02
     30.593  0.1408E+01  0.5892E+02
     30.727  0.1274E+01  0.5909E+02
     30.861  0.1186E+01  0.5925E+02
     30.995  0.1062E+01  0.5939E+02
     31.129  0.8491E+00  0.5951E+02
     31.263  0.6736E+00  0.5960E+02
     31.398  0.6579E+00  0.5968E+02
     31.532  0.6575E+00  0.5977E+02
     31.666  0.5154E+00  0.5984E+02
     31.800  0.3622E+00  0.5989E+02
     31.934  0.3205E+00  0.5993E+02
     32.068  0.2716E+00  0.5997E+02
     32.203  0.1563E+00  0.5999E+02
     32.337  0.5520E-01  0.6000E+02
     32.471  0.1139E-01  0.6000E+02
     32.605  0.1294E-02  0.6000E+02
     32.739  0.7567E-04  0.6000E+02
     32.873  0.2136E-05  0.6000E+02
     33.008  0.2767E-07  0.6000E+02
     33.142  0.1587E-09  0.6000E+02
     33.276  0.3932E-12  0.6000E+02
     33.410  0.4134E-15  0.6000E+02
     33.544  0.0000E+00  0.6000E+02
     33.678  0.0000E+00  0.6000E+02
     33.813  0.0000E+00  0.6000E+02
     33.947  0.0000E+00  0.6000E+02
     34.081  0.0000E+00  0.6000E+02
     34.215  0.0000E+00  0.6000E+02
     34.21503056     -6.03326927  301      6.64477847      1.00000000
     -6.033  0.0000E+00  0.0000E+00  0.0000E+00  0.0000E+00  0.0000E+00  0.0000E+00  0.0000E+00  0.0000E+00  0.0000E+00  0.0000E+00  0.0000E+00  0.0000E+00
     -5.899  0.0000E+00  0.0000E+00  0.0000E+00  0.0000E+00  0.0000E+00  0.0000E+00  0.0000E+00  0.0000E+00  0.0000E+00  0.0000E+00  0.0000E+00  0.0000E+00
     -5.765  0.0000E+00  0.0000E+00  0.0000E+00  0.0000E+00  0.0000E+00  0.0000E+00  0.0000E+00  0.0000E+00  0.0000E+00  0.0000E+00  0.0000E+00  0.0000E+00
     -5.631  0.0000E+00  0.0000E+00  0.0000E+00  0.0000E+00  0.0000E+00  0.0000E+00  0.0000E+00  0.0000E+00  0.0000E+00  0.0000E+00  0.0000E+00  0.0000E+00
     -5.497  0.0000E+00  0.0000E+00  0.0000E+00  0.0000E+00  0.0000E+00  0.0000E+00  0.0000E+00  0.0000E+00  0.0000E+00  0.0000E+00  0.0000E+00  0.0000E+00
     -5.362  0.0000E+00  0.0000E+00  0.0000E+00  0.0000E+00  0.0000E+00  0.0000E+00  0.0000E+00  0.0000E+00  0.0000E+00  0.0000E+00  0.0000E+00  0.0000E+00
     -5.228  0.0000E+00  0.0000E+00  0.0000E+00  0.0000E+00  0.0000E+00  0.0000E+00  0.0000E+00  0.0000E+00  0.0000E+00  0.0000E+00  0.0000E+00  0.0000E+00
     -5.094  0.2493E-15 -0.1756E-17 -0.1756E-17 -0.1756E-17  0.6134E-18 -0.4068E-20 -0.4057E-20 -0.4057E-20  0.1175E-19 -0.6883E-22 -0.6860E-22 -0.6860E-22
     -4.960  0.2266E-12 -0.1483E-14 -0.1483E-14 -0.1483E-14  0.5798E-15 -0.3815E-17 -0.3807E-17 -0.3807E-17  0.1178E-16 -0.7584E-19 -0.7578E-19 -0.7578E-19
     -4.826  0.8640E-10 -0.4886E-12 -0.4886E-12 -0.4886E-12  0.2365E-12 -0.1353E-14 -0.1350E-14 -0.1350E-14  0.5267E-14 -0.2947E-16 -0.2949E-16 -0.2949E-16
     -4.692  0.1399E-07 -0.6692E-10 -0.6692E-10 -0.6692E-10  0.4257E-10 -0.2084E-12 -0.2081E-12 -0.2081E-12  0.1078E-11 -0.5198E-14 -0.5208E-14 -0.5208E-14
     -4.557  0.9811E-06 -0.3863E-08 -0.3863E-08 -0.3863E-08  0.3484E-08 -0.1430E-10 -0.1429E-10 -0.1429E-10  0.1043E-09 -0.4252E-12 -0.4262E-12 -0.4262E-12
     -4.423  0.3068E-04 -0.9589E-07 -0.9589E-07 -0.9589E-07  0.1338E-06 -0.4480E-09 -0.4479E-09 -0.4478E-09  0.4896E-08 -0.1647E-10 -0.1650E-10 -0.1650E-10
     -4.289  0.4451E-03 -0.1050E-05 -0.1050E-05 -0.1050E-05  0.2494E-05 -0.6557E-08 -0.6558E-08 -0.6556E-08  0.1151E-06 -0.3095E-09 -0.3097E-09 -0.3097E-09
     -4.155  0.3159E-02 -0.5238E-05 -0.5238E-05 -0.5238E-05  0.2363E-04 -0.4658E-07 -0.4658E-07 -0.4656E-07  0.1421E-05 -0.2951E-08 -0.2951E-08 -0.2949E-08
     -4.021  0.1185E-01 -0.1250E-04 -0.1250E-04 -0.1250E-04  0.1231E-03 -0.1744E-06 -0.1743E-06 -0.1743E-06  0.1001E-04 -0.1560E-07 -0.1561E-07 -0.1560E-07
     -3.887  0.2652E-01 -0.1604E-04 -0.1604E-04 -0.1604E-04  0.3967E-03 -0.3921E-06 -0.3920E-06 -0.3917E-06  0.4472E-04 -0.5139E-07 -0.5155E-07 -0.5144E-07
     -3.753  0.4169E-01 -0.1351E-04 -0.1351E-04 -0.1351E-04  0.8904E-03 -0.6016E-06 -0.6015E-06 -0.6014E-06  0.1403E-03 -0.1175E-06 -0.1178E-06 -0.1175E-06
     -3.618  0.5366E-01 -0.1010E-04 -0.1010E-04 -0.1010E-04  0.1570E-02 -0.7806E-06 -0.7797E-06 -0.7798E-06  0.3424E-03 -0.2170E-06 -0.2167E-06 -0.2163E-06
     -3.484  0.6392E-01 -0.9106E-05 -0.9110E-05 -0.9109E-05  0.2431E-02 -0.9338E-06 -0.9320E-06 -0.9321E-06  0.7113E-03 -0.3455E-06 -0.3456E-06 -0.3449E-06
     -3.350  0.7248E-01 -0.5942E-05 -0.5943E-05 -0.5945E-05  0.3362E-02 -0.9341E-06 -0.9339E-06 -0.9331E-06  0.1306E-02 -0.4834E-06 -0.4866E-06 -0.4859E-06
     -3.216  0.7955E-01 -0.6785E-05 -0.6783E-05 -0.6787E-05  0.4393E-02 -0.1166E-05 -0.1167E-05 -0.1166E-05  0.2219E-02 -0.6746E-06 -0.6764E-06 -0.6775E-06
     -3.082  0.8901E-01 -0.7929E-05 -0.7941E-05 -0.7938E-05  0.5684E-02 -0.1296E-05 -0.1294E-05 -0.1295E-05  0.3617E-02 -0.9241E-06 -0.9169E-06 -0.9204E-06
     -2.948  0.9638E-01 -0.2421E-05 -0.2445E-05 -0.2434E-05  0.6847E-02 -0.9560E-06 -0.9508E-06 -0.9544E-06  0.5624E-02 -0.1027E-05 -0.1026E-05 -0.1025E-05
     -2.813  0.1007E+00 -0.3906E-05 -0.3917E-05 -0.3913E-05  0.7907E-02 -0.1277E-05 -0.1274E-05 -0.1276E-05  0.8417E-02 -0.1315E-05 -0.1338E-05 -0.1327E-05
     -2.679  0.1119E+00 -0.1078E-04 -0.1078E-04 -0.1078E-04  0.9667E-02 -0.1889E-05 -0.1888E-05 -0.1887E-05  0.1280E-01 -0.1829E-05 -0.1866E-05 -0.1855E-05
     -2.545  0.1233E+00 -0.2305E-05 -0.2310E-05 -0.2319E-05  0.1128E-01 -0.9585E-06 -0.9620E-06 -0.9590E-06  0.1915E-01 -0.1675E-05 -0.1688E-05 -0.1703E-05
     -2.411  0.1280E+00  0.2092E-06  0.1411E-06  0.1490E-06  0.1208E-01 -0.7190E-06 -0.7231E-06 -0.7214E-06  0.2870E-01 -0.2117E-05 -0.2086E-05 -0.2141E-05
     -2.277  0.1399E+00 -0.9221E-05 -0.9280E-05 -0.9289E-05  0.1348E-01 -0.1782E-05 -0.1778E-05 -0.1780E-05  0.4498E-01 -0.2609E-05 -0.2665E-05 -0.2725E-05
     -2.143  0.1634E+00 -0.1323E-04 -0.1323E-04 -0.1324E-04  0.1576E-01 -0.2070E-05 -0.2050E-05 -0.2065E-05  0.7292E-01 -0.2098E-05 -0.2317E-05 -0.2326E-05
     -2.008  0.1857E+00 -0.1636E-05 -0.1731E-05 -0.1653E-05  0.1741E-01 -0.5210E-06 -0.4983E-06 -0.5190E-06  0.1115E+00  0.6051E-05  0.5679E-05  0.5754E-05
     -1.874  0.1870E+00  0.1140E-04  0.1128E-04  0.1137E-04  0.1720E-01  0.4899E-06  0.4867E-06  0.4856E-06  0.1456E+00  0.2097E-04  0.2052E-04  0.2052E-04
     -1.740  0.1762E+00  0.4179E-05  0.4230E-05  0.4184E-05  0.1744E-01 -0.1413E-05 -0.1431E-05 -0.1416E-05  0.1684E+00  0.3045E-04  0.3009E-04  0.2985E-04
     -1.606  0.1732E+00 -0.3382E-05 -0.3118E-05 -0.3220E-05  0.1998E-01 -0.2386E-05 -0.2379E-05 -0.2365E-05  0.1960E+00  0.3580E-04  0.3539E-04  0.3505E-04
     -1.472  0.1651E+00  0.9628E-05  0.9846E-05  0.9930E-05  0.2117E-01  0.3979E-06  0.4247E-06  0.4262E-06  0.2334E+00  0.5531E-04  0.5467E-04  0.5455E-04
     -1.338  0.1351E+00  0.1581E-04  0.1584E-04  0.1592E-04  0.1865E-01  0.1854E-05  0.1855E-05  0.1843E-05  0.2845E+00  0.9058E-04  0.9056E-04  0.9145E-04
     -1.203  0.1114E+00 -0.7539E-06 -0.9110E-06 -0.8472E-06  0.1778E-01 -0.1889E-06 -0.2178E-06 -0.2339E-06  0.4476E+00  0.1760E-03  0.1790E-03  0.1824E-03
     -1.069  0.9871E-01 -0.9283E-05 -0.9801E-05 -0.9450E-05  0.2095E-01  0.9634E-07  0.1040E-06 -0.1256E-08  0.8645E+00  0.3680E-03  0.3681E-03  0.3732E-03
     -0.935  0.7592E-01 -0.2107E-05 -0.2179E-05 -0.2191E-05  0.2864E-01  0.4079E-05  0.4091E-05  0.3834E-05  0.1689E+01  0.6339E-03  0.6166E-03  0.6159E-03
     -0.801  0.5999E-01  0.3288E-05  0.4046E-05  0.4066E-05  0.4619E-01  0.3476E-05  0.3087E-05  0.3248E-05  0.3007E+01  0.8345E-03  0.8244E-03  0.8226E-03
     -0.667  0.5235E-01  0.3140E-05  0.3921E-05  0.4750E-05  0.5891E-01 -0.6518E-05 -0.7319E-05 -0.6000E-05  0.4038E+01  0.6534E-03  0.7039E-03  0.7160E-03
     -0.533  0.3995E-01  0.3202E-05  0.3673E-05  0.3903E-05  0.4999E-01 -0.1267E-04 -0.1255E-04 -0.1147E-04  0.3869E+01  0.3079E-03  0.3681E-03  0.3722E-03
     -0.399  0.4567E-01  0.5973E-05  0.6144E-05  0.4201E-05  0.4444E-01 -0.1044E-04 -0.8357E-05 -0.9589E-05  0.3136E+01  0.2371E-03  0.2422E-03  0.2147E-03
     -0.264  0.7637E-01  0.8508E-05  0.8743E-05  0.5536E-05  0.5899E-01 -0.1098E-04 -0.8459E-05 -0.1081E-04  0.2447E+01  0.2292E-03  0.1993E-03  0.1692E-03
     -0.130  0.9855E-01  0.1061E-04  0.1067E-04  0.8746E-05  0.7291E-01 -0.1113E-04 -0.1197E-04 -0.1213E-04  0.1728E+01  0.1541E-03  0.8775E-04  0.8194E-04
      0.004  0.8160E-01  0.1250E-04  0.1091E-04  0.1230E-04  0.6179E-01 -0.4479E-05 -0.8338E-05 -0.6653E-05  0.9935E+00  0.8070E-04 -0.8304E-05  0.1587E-05
      0.138  0.4548E-01  0.8303E-05  0.8119E-05  0.9649E-05  0.3234E-01  0.1011E-05 -0.1106E-05 -0.6295E-06  0.4547E+00  0.4184E-04 -0.1035E-04 -0.5085E-05
      0.272  0.4910E-01 -0.8508E-06  0.6179E-05  0.2824E-05  0.1606E-01 -0.1788E-05 -0.1690E-05 -0.2115E-05  0.4850E+00  0.1093E-03  0.1209E-03  0.1236E-03
      0.406  0.1182E+00  0.4350E-05  0.1468E-04  0.8967E-05  0.2718E-01 -0.9651E-05 -0.8371E-05 -0.8858E-05  0.1398E+01  0.3306E-03  0.4061E-03  0.4185E-03
      0.541  0.1892E+00  0.2674E-04  0.2232E-04  0.2556E-04  0.5125E-01 -0.1190E-04 -0.9933E-05 -0.1014E-04  0.2876E+01  0.5497E-03  0.6581E-03  0.6811E-03
      0.675  0.1744E+00  0.3489E-04  0.1149E-04  0.2630E-04  0.6167E-01 -0.4053E-05 -0.1565E-05 -0.1638E-05  0.3812E+01  0.5403E-03  0.5983E-03  0.6182E-03
      0.809  0.1026E+00  0.2115E-04  0.1550E-05  0.1564E-04  0.5837E-01  0.1809E-05  0.3259E-05  0.2611E-05  0.3936E+01  0.4367E-03  0.4198E-03  0.4232E-03
      0.943  0.5698E-01  0.9218E-05  0.5081E-05  0.1195E-04  0.5485E-01  0.2126E-05  0.8337E-06  0.4873E-06  0.3947E+01  0.3340E-03  0.2935E-03  0.2855E-03
      1.077  0.5274E-01  0.8378E-05  0.1746E-04  0.1355E-04  0.4367E-01  0.1182E-05 -0.1053E-05 -0.3175E-06  0.3539E+01  0.1196E-03  0.9709E-04  0.9266E-04
      1.211  0.9623E-01  0.1010E-04  0.3782E-04  0.1532E-04  0.2886E-01  0.4075E-06 -0.1812E-05  0.1129E-06  0.3190E+01 -0.1212E-03 -0.1338E-03 -0.1365E-03
      1.346  0.1777E+00 -0.4759E-05  0.2096E-04 -0.2547E-05  0.2478E-01 -0.1451E-05 -0.2944E-05 -0.1300E-05  0.3795E+01 -0.7934E-03 -0.8171E-03 -0.8316E-03
      1.480  0.1925E+00 -0.3011E-04 -0.3474E-04 -0.3255E-04  0.2399E-01 -0.2104E-05 -0.1741E-05 -0.1741E-05  0.3736E+01 -0.1647E-02 -0.1659E-02 -0.1674E-02
      1.614  0.1240E+00 -0.2588E-04 -0.4294E-04 -0.2829E-04  0.2206E-01  0.2071E-05  0.2618E-05  0.2295E-05  0.2211E+01 -0.1429E-02 -0.1426E-02 -0.1424E-02
      1.748  0.7712E-01 -0.7973E-05 -0.1721E-04 -0.9224E-05  0.3156E-01  0.5843E-05  0.6351E-05  0.5960E-05  0.9423E+00 -0.6254E-03 -0.6255E-03 -0.6164E-03
      1.882  0.7114E-01 -0.7495E-05 -0.8240E-05 -0.7446E-05  0.5423E-01  0.4058E-05  0.5745E-05  0.4248E-05  0.5626E+00 -0.2421E-03 -0.2355E-03 -0.2353E-03
      2.016  0.8160E-01 -0.1023E-04 -0.7853E-05 -0.1014E-04  0.8339E-01  0.3718E-05  0.5211E-05  0.3437E-05  0.5132E+00 -0.1571E-03 -0.1465E-03 -0.1529E-03
      2.151  0.9684E-01 -0.3363E-05 -0.1848E-05 -0.4100E-05  0.1047E+00  0.5953E-05  0.5998E-05  0.5612E-05  0.4955E+00 -0.1256E-03 -0.1204E-03 -0.1236E-03
      2.285  0.9684E-01  0.1481E-05  0.2160E-05  0.1472E-05  0.1045E+00  0.3986E-05  0.4292E-05  0.4390E-05  0.4172E+00 -0.1013E-03 -0.9793E-04 -0.9826E-04
      2.419  0.8591E-01 -0.1301E-05 -0.1125E-05 -0.7489E-06  0.9829E-01  0.1518E-05  0.2488E-05  0.2040E-05  0.3271E+00 -0.7215E-04 -0.6843E-04 -0.6970E-04
      2.553  0.7949E-01 -0.4114E-05 -0.4663E-05 -0.3912E-05  0.9218E-01  0.1422E-05  0.1483E-05  0.1561E-05  0.2574E+00 -0.4860E-04 -0.4860E-04 -0.4807E-04
      2.687  0.7976E-01 -0.5757E-05 -0.6852E-05 -0.5721E-05  0.8093E-01  0.4658E-06 -0.9235E-06  0.1449E-06  0.1847E+00 -0.3352E-04 -0.3827E-04 -0.3482E-04
      2.821  0.8668E-01 -0.6185E-05 -0.7257E-05 -0.6017E-05  0.7958E-01 -0.1270E-05 -0.2382E-05 -0.1758E-05  0.1468E+00 -0.2974E-04 -0.3324E-04 -0.3117E-04
      2.956  0.8945E-01  0.2002E-05  0.1806E-05  0.2028E-05  0.8809E-01  0.3794E-05  0.3386E-05  0.3559E-05  0.1517E+00 -0.2362E-04 -0.2439E-04 -0.2392E-04
      3.090  0.7355E-01  0.9613E-05  0.9982E-05  0.9428E-05  0.8926E-01  0.7939E-05  0.7710E-05  0.7942E-05  0.1597E+00 -0.1827E-04 -0.1864E-04 -0.1802E-04
      3.224  0.5915E-01  0.7782E-06  0.9343E-06  0.6947E-06  0.9279E-01 -0.3470E-06 -0.4283E-06 -0.2698E-06  0.1674E+00 -0.2621E-04 -0.2650E-04 -0.2589E-04
      3.358  0.6347E-01 -0.6473E-05 -0.6308E-05 -0.6527E-05  0.1085E+00 -0.5986E-05 -0.6063E-05 -0.5940E-05  0.1766E+00 -0.3328E-04 -0.3338E-04 -0.3285E-04
      3.492  0.6618E-01  0.1373E-05  0.2001E-05  0.1198E-05  0.1170E+00  0.2787E-05  0.2636E-05  0.2682E-05  0.1726E+00 -0.2274E-04 -0.2264E-04 -0.2256E-04
      3.626  0.5399E-01  0.6856E-05  0.7389E-05  0.6722E-05  0.1095E+00  0.5354E-05  0.5183E-05  0.5090E-05  0.1525E+00 -0.1639E-04 -0.1599E-04 -0.1660E-04
      3.760  0.4698E-01 -0.2571E-06 -0.6611E-06 -0.2920E-06  0.1174E+00 -0.5848E-05 -0.5763E-05 -0.5939E-05  0.1560E+00 -0.2806E-04 -0.2694E-04 -0.2803E-04
      3.895  0.5638E-01 -0.6953E-05 -0.7689E-05 -0.6981E-05  0.1377E+00 -0.8138E-05 -0.7748E-05 -0.7973E-05  0.1661E+00 -0.2669E-04 -0.2519E-04 -0.2610E-04
      4.029  0.5898E-01  0.4463E-05  0.4252E-05  0.4612E-05  0.1384E+00  0.3070E-05  0.3316E-05  0.2934E-05  0.1468E+00 -0.1325E-04 -0.1290E-04 -0.1266E-04
      4.163  0.4093E-01  0.1159E-04  0.1174E-04  0.1183E-04  0.1256E+00  0.5869E-05  0.6193E-05  0.5559E-05  0.1244E+00 -0.8664E-05 -0.9373E-05 -0.8523E-05
      4.297  0.2934E-01  0.1578E-06  0.2559E-06  0.2900E-06  0.1216E+00 -0.6819E-05 -0.6640E-05 -0.6704E-05  0.1140E+00 -0.1544E-04 -0.1575E-04 -0.1573E-04
      4.431  0.3873E-01 -0.8212E-05 -0.8362E-05 -0.8326E-05  0.1452E+00 -0.2421E-04 -0.2503E-04 -0.2360E-04  0.1279E+00 -0.3305E-04 -0.3340E-04 -0.3326E-04
      4.565  0.4946E-01 -0.1289E-05 -0.1213E-05 -0.1423E-05  0.1882E+00 -0.1932E-04 -0.2004E-04 -0.1882E-04  0.1615E+00 -0.3382E-04 -0.3441E-04 -0.3355E-04
      4.700  0.4229E-01  0.7464E-05  0.7882E-05  0.7605E-05  0.2038E+00  0.1799E-06  0.4597E-06 -0.5857E-07  0.1662E+00 -0.1758E-04 -0.1811E-04 -0.1722E-04
      4.834  0.2849E-01  0.5472E-05  0.6059E-05  0.5607E-05  0.1958E+00  0.3666E-05  0.4161E-05  0.3376E-05  0.1479E+00 -0.1437E-04 -0.1415E-04 -0.1429E-04
      4.968  0.2471E-01 -0.1474E-05 -0.7095E-06 -0.1592E-05  0.1956E+00 -0.4398E-06 -0.9052E-06 -0.5253E-06  0.1385E+00 -0.1782E-04 -0.1793E-04 -0.1785E-04
      5.102  0.3328E-01 -0.5590E-05 -0.5282E-05 -0.5802E-05  0.2183E+00 -0.5880E-05 -0.6900E-05 -0.6461E-05  0.1490E+00 -0.2324E-04 -0.2410E-04 -0.2340E-04
      5.236  0.3893E-01  0.1406E-05  0.8544E-06  0.1309E-05  0.2325E+00  0.4331E-05  0.4559E-05  0.4520E-05  0.1558E+00 -0.1589E-04 -0.1587E-04 -0.1609E-04
      5.370  0.2833E-01  0.7578E-05  0.7045E-05  0.7722E-05  0.2063E+00  0.1150E-04  0.1261E-04  0.1288E-04  0.1344E+00 -0.6953E-05 -0.6420E-05 -0.6938E-05
      5.505  0.1852E-01  0.1808E-05  0.2063E-05  0.2094E-05  0.1886E+00  0.3607E-05  0.4126E-05  0.3643E-05  0.1157E+00 -0.9337E-05 -0.8857E-05 -0.9273E-05
      5.639  0.2232E-01 -0.3005E-05 -0.2944E-05 -0.2946E-05  0.2037E+00  0.1341E-05  0.1224E-05  0.1254E-06  0.1170E+00 -0.1081E-04 -0.1028E-04 -0.1081E-04
      5.773  0.2846E-01 -0.1160E-05 -0.2184E-05 -0.1474E-05  0.2145E+00  0.3264E-05  0.2293E-05  0.2080E-05  0.1176E+00 -0.9101E-05 -0.9447E-05 -0.9682E-05
      5.907  0.2685E-01  0.2449E-05  0.1639E-05  0.2299E-05  0.2049E+00  0.3504E-05  0.2314E-05  0.2986E-05  0.1064E+00 -0.7196E-05 -0.7911E-05 -0.7650E-05
      6.041  0.1927E-01  0.3275E-05  0.3528E-05  0.3403E-05  0.1929E+00 -0.1843E-05 -0.1869E-05 -0.1186E-05  0.9466E-01 -0.8407E-05 -0.9177E-05 -0.8028E-05
      6.175  0.1550E-01  0.8044E-06  0.1372E-05  0.7762E-06  0.2003E+00 -0.2759E-06 -0.3493E-06 -0.2019E-06  0.9410E-01 -0.7305E-05 -0.8557E-05 -0.7277E-05
      6.310  0.1745E-01 -0.5337E-06 -0.6286E-06 -0.5028E-06  0.2029E+00  0.1420E-04  0.1454E-04  0.1437E-04  0.9074E-01  0.2033E-06  0.4512E-06 -0.1059E-07
      6.444  0.1923E-01 -0.3437E-06 -0.1895E-06  0.7029E-07  0.1856E+00  0.1110E-04  0.1344E-04  0.1336E-04  0.7509E-01  0.1030E-05  0.3360E-05  0.1954E-05
      6.578  0.1786E-01  0.9210E-06  0.1274E-05  0.9839E-06  0.1765E+00 -0.4525E-05 -0.3650E-05 -0.3245E-05  0.6344E-01 -0.5027E-05 -0.4021E-05 -0.4016E-05
      6.712  0.1428E-01  0.1499E-05  0.1136E-05  0.1082E-05  0.1825E+00 -0.1138E-04 -0.1245E-04 -0.1241E-04  0.6341E-01 -0.9056E-05 -0.9894E-05 -0.9446E-05
      6.846  0.1266E-01  0.1031E-05  0.7213E-06  0.6781E-06  0.1916E+00  0.4980E-05  0.4990E-05  0.4093E-05  0.6829E-01 -0.4335E-05 -0.4978E-05 -0.5114E-05
      6.980  0.1187E-01  0.6714E-06  0.1442E-05  0.7299E-06  0.1649E+00  0.3463E-04  0.3615E-04  0.3547E-04  0.5781E-01  0.6920E-05  0.6930E-05  0.7192E-05
      7.115  0.1137E-01 -0.2897E-06  0.6587E-06 -0.1677E-06  0.1226E+00  0.2483E-04  0.2441E-04  0.2435E-04  0.3940E-01  0.4903E-05  0.4511E-05  0.4860E-05
      7.249  0.1179E-01  0.1984E-06 -0.1536E-06  0.8411E-07  0.1172E+00 -0.6470E-06 -0.2862E-05 -0.2896E-05  0.3485E-01 -0.2534E-05 -0.2976E-05 -0.3468E-05
      7.383  0.1088E-01  0.8784E-06 -0.4230E-06  0.1015E-05  0.1291E+00 -0.5473E-05 -0.5926E-05 -0.5679E-05  0.3774E-01 -0.5406E-05 -0.4749E-05 -0.5699E-05
      7.517  0.9304E-02  0.7064E-06 -0.9435E-08  0.1014E-05  0.1256E+00  0.9067E-05  0.9341E-05  0.9806E-05  0.3857E-01 -0.2649E-05 -0.1931E-05 -0.2287E-05
      7.651  0.7821E-02  0.4609E-06  0.9131E-06  0.5669E-06  0.1008E+00  0.2103E-04  0.2081E-04  0.2087E-04  0.3189E-01  0.2683E-05  0.2492E-05  0.2959E-05
      7.785  0.6862E-02  0.2686E-06  0.8836E-06  0.1561E-06  0.7649E-01  0.1479E-04  0.1523E-04  0.1494E-04  0.2399E-01  0.2334E-05  0.1903E-05  0.2407E-05
      7.919  0.6596E-02  0.8932E-07  0.1536E-06 -0.5677E-08  0.6666E-01  0.2775E-05  0.3907E-05  0.3742E-05  0.2778E-01 -0.2654E-05 -0.2385E-05 -0.2520E-05
      8.054  0.6916E-02 -0.2550E-06 -0.4238E-06 -0.1182E-06  0.6733E-01 -0.3741E-05 -0.2379E-05 -0.2434E-05  0.4920E-01 -0.9034E-05 -0.8346E-05 -0.8853E-05
      8.188  0.7029E-02 -0.3180E-06 -0.2233E-06 -0.1963E-06  0.6919E-01  0.1189E-05  0.1566E-05  0.1199E-05  0.7999E-01 -0.1679E-04 -0.1668E-04 -0.1677E-04
      8.322  0.7421E-02 -0.1602E-05 -0.1523E-05 -0.1762E-05  0.6363E-01  0.6636E-05  0.5631E-05  0.5260E-05  0.1152E+00 -0.2860E-04 -0.2867E-04 -0.2847E-04
      8.456  0.1041E-01 -0.3847E-05 -0.3850E-05 -0.4029E-05  0.5632E-01  0.6307E-05  0.5629E-05  0.5591E-05  0.1541E+00 -0.3565E-04 -0.3572E-04 -0.3558E-04
      8.590  0.1463E-01 -0.5629E-05 -0.5457E-05 -0.5502E-05  0.4760E-01  0.5815E-05  0.6715E-05  0.6906E-05  0.1770E+00 -0.3658E-04 -0.3667E-04 -0.3679E-04
      8.724  0.1956E-01 -0.8852E-05 -0.8810E-05 -0.8778E-05  0.4040E-01  0.6247E-06  0.2064E-05  0.1999E-05  0.1907E+00 -0.4078E-04 -0.4114E-04 -0.4101E-04
      8.859  0.2630E-01 -0.9353E-05 -0.9431E-05 -0.9514E-05  0.4340E-01 -0.4147E-05 -0.4832E-05 -0.5321E-05  0.2111E+00 -0.3836E-04 -0.3972E-04 -0.3895E-04
      8.993  0.3118E-01 -0.6636E-05 -0.6586E-05 -0.6709E-05  0.5081E-01 -0.1355E-05 -0.4048E-05 -0.4181E-05  0.2252E+00 -0.2823E-04 -0.2913E-04 -0.2878E-04
      9.127  0.3556E-01 -0.8801E-05 -0.8754E-05 -0.8714E-05  0.4916E-01 -0.1110E-05 -0.1751E-05 -0.1058E-05  0.2293E+00 -0.3215E-04 -0.3067E-04 -0.3158E-04
      9.261  0.3945E-01 -0.2492E-05 -0.2545E-05 -0.2416E-05  0.4419E-01 -0.7795E-05 -0.5238E-05 -0.4675E-05  0.2283E+00 -0.1870E-04 -0.1611E-04 -0.1765E-04
      9.395  0.3678E-01  0.5993E-05  0.6000E-05  0.6013E-05  0.4934E-01 -0.1482E-04 -0.1259E-04 -0.1241E-04  0.2186E+00 -0.5813E-05 -0.3867E-05 -0.5237E-05
      9.529  0.3333E-01  0.2590E-05  0.2753E-05  0.2594E-05  0.6619E-01 -0.9571E-05 -0.1111E-04 -0.1082E-04  0.2142E+00 -0.6160E-06 -0.2206E-06 -0.5475E-06
      9.664  0.3498E-01 -0.4485E-05 -0.4460E-05 -0.4496E-05  0.7307E-01  0.3682E-05  0.1387E-05  0.1299E-05  0.2041E+00  0.1400E-04  0.1252E-04  0.1376E-04
      9.798  0.3889E-01 -0.2277E-05 -0.2462E-05 -0.2362E-05  0.6377E-01  0.6466E-05  0.6495E-05  0.5829E-05  0.1796E+00  0.2548E-04  0.2344E-04  0.2516E-04
      9.932  0.3589E-01  0.1081E-04  0.1082E-04  0.1076E-04  0.5051E-01  0.1016E-04  0.1147E-04  0.1053E-04  0.1415E+00  0.4579E-04  0.4418E-04  0.4542E-04