    3    3    1    1
  0.1764755E+02  0.4214767E-09  0.4214767E-09  0.4214767E-09  0.5000000E-15
  1.000000000000000E-004
  CAR 
 AuAl2 soc                               
     17    670     60
 
  0.5000000E-01  0.5000000E-01  0.5000000E-01  0.5000000E-03
    1       -4.033269
    2       -4.032791
    3       -0.669246
    4       -0.669221
    5       -0.665954
    6       -0.665508
    7        0.358075
    8        0.358235
    9        1.129386
   10        1.129933
   11        1.141019
   12        1.141567
   13        8.314072
   14        8.314110
   15        8.897041
   16        8.897511
   17        9.557983
   18        9.558064
   19        9.772105
   20        9.772367
   21       10.776991
   22       10.777097
   23       10.795086
   24       10.795315
   25       11.289811
   26       11.289978
   27       12.276656
   28       12.277045
   29       12.388672
   30       12.389398
   31       12.412620
   32       12.413021
   33       13.564354
   34       13.565339
   35       15.202163
   36       15.202398
   37       15.216444
   38       15.216681
   39       18.160195
   40       18.161083
   41       26.490737
   42       26.491018
   43       26.500164
   44       26.500693
   45       26.658603
   46       26.658958
   47       28.377408
   48       28.377640
   49       28.556367
   50       28.556640
   51       28.581322
   52       28.581601
   53       30.148497
   54       30.148887
   55       30.996070
   56       30.996645
   57       31.280609
   58       31.281081
   59       31.847518
   60       31.850891
 
  0.5000000E-01  0.0000000E+00  0.0000000E+00  0.1500000E-02
    1       -4.033269
    2       -4.032792
    3       -0.669316
    4       -0.669024
    5       -0.665877
    6       -0.665722
    7        0.358085
    8        0.358227
    9        1.129507
   10        1.129696
   11        1.141261
   12        1.141448
   13        8.314021
   14        8.314170
   15        8.897025
   16        8.897517
   17        9.557918
   18        9.558105
   19        9.772193
   20        9.772281
   21       10.777026
   22       10.777091
   23       10.795161
   24       10.795237
   25       11.289788
   26       11.289990
   27       12.276737
   28       12.276963
   29       12.388912
   30       12.389155
   31       12.412545
   32       12.413102
   33       13.564349
   34       13.565336
   35       15.202244
   36       15.202322
   37       15.216525
   38       15.216604
   39       18.160195
   40       18.161083
   41       26.490787
   42       26.490938
   43       26.500311
   44       26.500486
   45       26.658711
   46       26.659170
   47       28.377374
   48       28.377607
   49       28.556529
   50       28.556620
   51       28.581485
   52       28.581578
   53       30.148619
   54       30.148825
   55       30.996304
   56       30.996494
   57       31.280625
   58       31.281155
   59       31.847225
   60       31.847521
 
  0.1500000E+00  0.5000000E-01  0.5000000E-01  0.1500000E-02
    1       -3.856813
    2       -3.856337
    3       -0.678700
    4       -0.678489
    5       -0.642408
    6       -0.642156
    7        0.372977
    8        0.373142
    9        1.091932
   10        1.092157
   11        1.163041
   12        1.163294
   13        7.171667
   14        7.171877
   15        8.155350
   16        8.155521
   17        9.204041
   18        9.204322
   19        9.598607
   20        9.598904
   21       10.811455
   22       10.811676
   23       11.490982
   24       11.491235
   25       11.803561
   26       11.804160
   27       11.888317
   28       11.888779
   29       12.370313
   30       12.370547
   31       12.593291
   32       12.594017
   33       14.766976
   34       14.767770
   35       15.521771
   36       15.522095
   37       16.257996
   38       16.258322
   39       18.853092
   40       18.853943
   41       24.782616
   42       24.783062
   43       25.613348
   44       25.613802
   45       25.741223
   46       25.741794
   47       28.017822
   48       28.018030
   49       28.675065
   50       28.675331
   51       29.674210
   52       29.674555
   53       30.008482
   54       30.008914
   55       30.743177
   56       30.743629
   57       30.849285
   58       30.849639
   59       31.314517
   60       31.314804
 
  0.5000000E-01  0.0000000E+00 -0.1000000E+00  0.1500000E-02
    1       -3.856813
    2       -3.856337
    3       -0.678727
    4       -0.678417
    5       -0.642379
    6       -0.642244
    7        0.373010
    8        0.373120
    9        1.091857
   10        1.092175
   11        1.163046
   12        1.163367
   13        7.171653
   14        7.171892
   15        8.155317
   16        8.155559
   17        9.204071
   18        9.204259
   19        9.598683
   20        9.598791
   21       10.811501
   22       10.811700
   23       11.490972
   24       11.491225
   25       11.803569
   26       11.804175
   27       11.888314
   28       11.888790
   29       12.370269
   30       12.370550
   31       12.593278
   32       12.594013
   33       14.766965
   34       14.767761
   35       15.521769
   36       15.522098
   37       16.257993
   38       16.258317
   39       18.853093
   40       18.853944
   41       24.782709
   42       24.783166
   43       25.613369
   44       25.613698
   45       25.741249
   46       25.741730
   47       28.017769
   48       28.017977
   49       28.675287
   50       28.675556
   51       29.674103
   52       29.674444
   53       30.008519
   54       30.008938
   55       30.743247
   56       30.743720
   57       30.849371
   58       30.849796
   59       31.314208
   60       31.314652
 
  0.1500000E+00  0.1000000E+00  0.1000000E+00  0.1500000E-02
    1       -3.856813
    2       -3.856337
    3       -0.678674
    4       -0.678550
    5       -0.642432
    6       -0.642075
    7        0.372950
    8        0.373159
    9        1.091823
   10        1.092308
   11        1.162888
   12        1.163383
   13        7.171684
   14        7.171871
   15        8.155346
   16        8.155529
   17        9.204030
   18        9.204331
   19        9.598605
   20        9.598892
   21       10.811499
   22       10.811705
   23       11.490999
   24       11.491228
   25       11.803556
   26       11.804163
   27       11.888293
   28       11.888783
   29       12.370310
   30       12.370542
   31       12.593283
   32       12.594008
   33       14.766984
   34       14.767774
   35       15.521777
   36       15.522101
   37       16.257997
   38       16.258321
   39       18.853089
   40       18.853940
   41       24.782621
   42       24.783069
   43       25.613405
   44       25.613701
   45       25.741205
   46       25.741656
   47       28.017772
   48       28.017980
   49       28.675052
   50       28.675322
   51       29.674027
   52       29.674373
   53       30.008488
   54       30.008964
   55       30.743236
   56       30.743738
   57       30.849252
   58       30.849719
   59       31.314797
   60       31.332142
 
  0.5000000E-01 -0.1000000E+00  0.0000000E+00  0.1500000E-02
    1       -3.856813
    2       -3.856337
    3       -0.678727
    4       -0.678417
    5       -0.642379
    6       -0.642244
    7        0.373010
    8        0.373120
    9        1.091857
   10        1.092175
   11        1.163046
   12        1.163367
   13        7.171653
   14        7.171892
   15        8.155317
   16        8.155559
   17        9.204071
   18        9.204259
   19        9.598683
   20        9.598791
   21       10.811501
   22       10.811700
   23       11.490972
   24       11.491225
   25       11.803569
   26       11.804175
   27       11.888314
   28       11.888790
   29       12.370269
   30       12.370550
   31       12.593278
   32       12.594013
   33       14.766965
   34       14.767761
   35       15.521769
   36       15.522098
   37       16.257993
   38       16.258317
   39       18.853093
   40       18.853944
   41       24.782709
   42       24.783166
   43       25.613369
   44       25.613698
   45       25.741249
   46       25.741730
   47       28.017769
   48       28.017977
   49       28.675287
   50       28.675556
   51       29.674103
   52       29.674444
   53       30.008519
   54       30.008938
   55       30.743246
   56       30.743721
   57       30.849381
   58       30.849795
   59       31.314558
   60       31.315800
 
  0.2500000E+00  0.5000000E-01  0.5000000E-01  0.1500000E-02
    1       -3.431207
    2       -3.430739
    3       -0.693277
    4       -0.693034
    5       -0.606195
    6       -0.605992
    7        0.427713
    8        0.427884
    9        1.013724
   10        1.013832
   11        1.225112
   12        1.225282
   13        5.193793
   14        5.194035
   15        7.461439
   16        7.461659
   17        8.607513
   18        8.607725
   19        9.621173
   20        9.621668
   21       10.852960
   22       10.853217
   23       11.071185
   24       11.071584
   25       12.046553
   26       12.047066
   27       12.252203
   28       12.252563
   29       12.453317
   30       12.453736
   31       13.621088
   32       13.621549
   33       16.575189
   34       16.575555
   35       17.280316
   36       17.280998
   37       17.709621
   38       17.710022
   39       20.193008
   40       20.193781
   41       22.789402
   42       22.789800
   43       23.796128
   44       23.796550
   45       23.967818
   46       23.968346
   47       28.011832
   48       28.012077
   49       28.867591
   50       28.868118
   51       28.982864
   52       28.983109
   53       29.677985
   54       29.678449
   55       29.886334
   56       29.886660
   57       30.815136
   58       30.815309
   59       31.247607
   60       31.247779
 
  0.5000000E-01  0.0000000E+00 -0.2000000E+00  0.1500000E-02
    1       -3.431207
    2       -3.430739
    3       -0.693306
    4       -0.692987
    5       -0.606192
    6       -0.606049
    7        0.427756
    8        0.427853
    9        1.013632
   10        1.013889
   11        1.225099
   12        1.225363
   13        5.193790
   14        5.194033
   15        7.461435
   16        7.461667
   17        8.607492
   18        8.607702
   19        9.621170
   20        9.621660
   21       10.853065
   22       10.853183
   23       11.071218
   24       11.071532
   25       12.046561
   26       12.047034
   27       12.252253
   28       12.252504
   29       12.453315
   30       12.453774
   31       13.621057
   32       13.621522
   33       16.575132
   34       16.575526
   35       17.280333
   36       17.280994
   37       17.709678
   38       17.710018
   39       20.193015
   40       20.193788
   41       22.789555
   42       22.789963
   43       23.796240
   44       23.796380
   45       23.967888
   46       23.968227
   47       28.011771
   48       28.012015
   49       28.867684
   50       28.868210
   51       28.983048
   52       28.983296
   53       29.677813
   54       29.678278
   55       29.886243
   56       29.886561
   57       30.815112
   58       30.815415
   59       31.247584
   60       31.247897
 
  0.2500000E+00  0.2000000E+00  0.2000000E+00  0.1500000E-02
    1       -3.431208
    2       -3.430739
    3       -0.693246
    4       -0.693111
    5       -0.606242
    6       -0.605831
    7        0.427613
    8        0.427946
    9        1.013531
   10        1.014060
   11        1.224864
   12        1.225398
   13        5.193808
   14        5.194042
   15        7.461419
   16        7.461667
   17        8.607457
   18        8.607714
   19        9.621188
   20        9.621683
   21       10.852976
   22       10.853371
   23       11.071173
   24       11.071661
   25       12.046585
   26       12.047059
   27       12.252183
   28       12.252546
   29       12.453259
   30       12.453779
   31       13.621065
   32       13.621533
   33       16.575207
   34       16.575575
   35       17.280373
   36       17.280999
   37       17.709732
   38       17.710037
   39       20.193018
   40       20.193789
   41       22.789395
   42       22.789796
   43       23.796195
   44       23.796371
   45       23.967828
   46       23.968176
   47       28.011751
   48       28.011996
   49       28.867762
   50       28.868290
   51       28.982828
   52       28.983075
   53       29.677971
   54       29.678475
   55       29.886118
   56       29.886499
   57       30.814946
   58       30.815356
   59       31.247440
   60       31.247902
 
  0.5000000E-01 -0.2000000E+00  0.0000000E+00  0.1500000E-02
    1       -3.431207
    2       -3.430739
    3       -0.693306
    4       -0.692987
    5       -0.606192
    6       -0.606049
    7        0.427756
    8        0.427853
    9        1.013632
   10        1.013889
   11        1.225099
   12        1.225363
   13        5.193790
   14        5.194033
   15        7.461435
   16        7.461667
   17        8.607492
   18        8.607702
   19        9.621170
   20        9.621660
   21       10.853065
   22       10.853183
   23       11.071218
   24       11.071532
   25       12.046561
   26       12.047034
   27       12.252253
   28       12.252504
   29       12.453315
   30       12.453774
   31       13.621057
   32       13.621522
   33       16.575131
   34       16.575526
   35       17.280333
   36       17.280994
   37       17.709678
   38       17.710018
   39       20.193015
   40       20.193788
   41       22.789555
   42       22.789963
   43       23.796240
   44       23.796380
   45       23.967888
   46       23.968227
   47       28.011771
   48       28.012015
   49       28.867684
   50       28.868210
   51       28.983048
   52       28.983296
   53       29.677813
   54       29.678278
   55       29.886243
   56       29.886561
   57       30.815112
   58       30.815415
   59       31.247666
   60       31.247899
 
  0.3500000E+00  0.5000000E-01  0.5000000E-01  0.1500000E-02
    1       -2.818155
    2       -2.817726
    3       -0.672045
    4       -0.671883
    5       -0.569279
    6       -0.569100
    7        0.515508
    8        0.515688
    9        0.922848
   10        0.922932
   11        1.322764
   12        1.322900
   13        3.346171
   14        3.346334
   15        6.915350
   16        6.915583
   17        7.845355
   18        7.845597
   19        9.790398
   20        9.790989
   21       10.463125
   22       10.463388
   23       10.737772
   24       10.737958
   25       11.562073
   26       11.562595
   27       13.363356
   28       13.363658
   29       13.587987
   30       13.588383
   31       14.858860
   32       14.859358
   33       17.921430
   34       17.921946
   35       19.156139
   36       19.156623
   37       19.933684
   38       19.934552
   39       20.701153
   40       20.701582
   41       21.405745
   42       21.406113
   43       22.065831
   44       22.066109
   45       23.165438
   46       23.166139
   47       26.530519
   48       26.530982
   49       27.345063
   50       27.345498
   51       28.506745
   52       28.507064
   53       29.560072
   54       29.560402
   55       30.092920
   56       30.093221
   57       30.651648
   58       30.652439
   59       31.538549
   60       31.542014
 
  0.5000000E-01  0.0000000E+00 -0.3000000E+00  0.1500000E-02
    1       -2.818153
    2       -2.817725
    3       -0.672082
    4       -0.671820
    5       -0.569299
    6       -0.569146
    7        0.515536
    8        0.515673
    9        0.922761
   10        0.923003
   11        1.322741
   12        1.322988
   13        3.346164
   14        3.346326
   15        6.915352
   16        6.915591
   17        7.845330
   18        7.845574
   19        9.790415
   20        9.791005
   21       10.463086
   22       10.463357
   23       10.737816
   24       10.737996
   25       11.562064
   26       11.562587
   27       13.363454
   28       13.363568
   29       13.588046
   30       13.588326
   31       14.858839
   32       14.859340
   33       17.921310
   34       17.921832
   35       19.156238
   36       19.156700
   37       19.933717
   38       19.934579
   39       20.701218
   40       20.701655
   41       21.405882
   42       21.406256
   43       22.065719
   44       22.065989
   45       23.165374
   46       23.166074
   47       26.530552
   48       26.531014
   49       27.344965
   50       27.345401
   51       28.506617
   52       28.506936
   53       29.560366
   54       29.560697
   55       30.092798
   56       30.093091
   57       30.651740
   58       30.652534
   59       31.538613
   60       31.542728
 
  0.3500000E+00  0.3000000E+00  0.3000000E+00  0.1500000E-02
    1       -2.818157
    2       -2.817726
    3       -0.672025
    4       -0.671898
    5       -0.569326
    6       -0.568925
    7        0.515357
    8        0.515805
    9        0.922604
   10        0.923161
   11        1.322457
   12        1.323014
   13        3.346186
   14        3.346350
   15        6.915316
   16        6.915603
   17        7.845285
   18        7.845590
   19        9.790435
   20        9.791027
   21       10.463073
   22       10.463499
   23       10.737759
   24       10.738152
   25       11.562101
   26       11.562630
   27       13.363281
   28       13.363744
   29       13.587902
   30       13.588452
   31       14.858849
   32       14.859358
   33       17.921478
   34       17.921996
   35       19.156334
   36       19.156792
   37       19.933683
   38       19.934539
   39       20.701204
   40       20.701628
   41       21.405710
   42       21.406086
   43       22.065610
   44       22.065893
   45       23.165248
   46       23.165947
   47       26.530594
   48       26.531058
   49       27.345084
   50       27.345520
   51       28.506538
   52       28.506857
   53       29.559933
   54       29.560264
   55       30.092680
   56       30.092978
   57       30.651660
   58       30.652446
   59       31.538678
   60       31.544072
 
  0.5000000E-01 -0.3000000E+00  0.0000000E+00  0.1500000E-02
    1       -2.818153
    2       -2.817725
    3       -0.672082
    4       -0.671820
    5       -0.569299
    6       -0.569146
    7        0.515536
    8        0.515673
    9        0.922761
   10        0.923003
   11        1.322741
   12        1.322988
   13        3.346164
   14        3.346326
   15        6.915352
   16        6.915591
   17        7.845330
   18        7.845574
   19        9.790415
   20        9.791005
   21       10.463086
   22       10.463357
   23       10.737816
   24       10.737996
   25       11.562064
   26       11.562587
   27       13.363454
   28       13.363568
   29       13.588046
   30       13.588326
   31       14.858839
   32       14.859340
   33       17.921310
   34       17.921832
   35       19.156238
   36       19.156700
   37       19.933717
   38       19.934579
   39       20.701218
   40       20.701655
   41       21.405882
   42       21.406256
   43       22.065719
   44       22.065989
   45       23.165374
   46       23.166074
   47       26.530552
   48       26.531014
   49       27.344965
   50       27.345401
   51       28.506617
   52       28.506936
   53       29.560366
   54       29.560697
   55       30.092797
   56       30.093091
   57       30.651740
   58       30.652534
   59       31.538455
   60       31.538626
 
  0.4500000E+00  0.5000000E-01  0.5000000E-01  0.1500000E-02
    1       -2.221216
    2       -2.220926
    3       -0.583915
    4       -0.583769
    5       -0.400741
    6       -0.400700
    7        0.552149
    8        0.552336
    9        0.765972
   10        0.766134
   11        1.416433
   12        1.416489
   13        1.936300
   14        1.936371
   15        6.571150
   16        6.571361
   17        7.295283
   18        7.295510
   19        9.771769
   20        9.772482
   21       10.363474
   22       10.363675
   23       10.596537
   24       10.596738
   25       11.170995
   26       11.171433
   27       14.594600
   28       14.594960
   29       14.983180
   30       14.983611
   31       16.015030
   32       16.015602
   33       18.165393
   34       18.165981
   35       19.133894
   36       19.134508
   37       19.519885
   38       19.520332
   39       20.996711
   40       20.996995
   41       21.684671
   42       21.684999
   43       23.125428
   44       23.126226
   45       24.464339
   46       24.464765
   47       24.987485
   48       24.988111
   49       25.282949
   50       25.283400
   51       28.430883
   52       28.431763
   53       29.000891
   54       29.001235
   55       29.726442
   56       29.726744
   57       29.913620
   58       29.913879
   59       30.074258
   60       30.074501
 
  0.5000000E-01  0.0000000E+00 -0.4000000E+00  0.1500000E-02
    1       -2.221214
    2       -2.220925
    3       -0.583907
    4       -0.583751
    5       -0.400794
    6       -0.400715
    7        0.552153
    8        0.552356
    9        0.765941
   10        0.766178
   11        1.416357
   12        1.416618
   13        1.936267
   14        1.936363
   15        6.571156
   16        6.571372
   17        7.295267
   18        7.295494
   19        9.771769
   20        9.772482
   21       10.363424
   22       10.363651
   23       10.596591
   24       10.596793
   25       11.170981
   26       11.171417
   27       14.594731
   28       14.594841
   29       14.983267
   30       14.983519
   31       16.014998
   32       16.015578
   33       18.165314
   34       18.165905
   35       19.133918
   36       19.134522
   37       19.519988
   38       19.520414
   39       20.996814
   40       20.997098
   41       21.684593
   42       21.684919
   43       23.125462
   44       23.126260
   45       24.464292
   46       24.464715
   47       24.987451
   48       24.988077
   49       25.282848
   50       25.283300
   51       28.430913
   52       28.431794
   53       29.000714
   54       29.001051
   55       29.726710
   56       29.727082
   57       29.913759
   58       29.914075
   59       30.074144
   60       30.074361
 
  0.4500000E+00  0.4000000E+00  0.4000000E+00  0.1500000E-02
    1       -2.221223
    2       -2.220924
    3       -0.583949
    4       -0.583506
    5       -0.400814
    6       -0.400703
    7        0.551936
    8        0.552469
    9        0.765799
   10        0.766365
   11        1.416056
   12        1.416628
   13        1.936326
   14        1.936339
   15        6.571084
   16        6.571413
   17        7.295193
   18        7.295544
   19        9.771805
   20        9.772529
   21       10.363434
   22       10.363750
   23       10.596566
   24       10.596914
   25       11.171023
   26       11.171488
   27       14.594599
   28       14.595039
   29       14.983152
   30       14.983662
   31       16.015023
   32       16.015609
   33       18.165369
   34       18.165957
   35       19.133961
   36       19.134567
   37       19.520082
   38       19.520518
   39       20.996635
   40       20.996924
   41       21.684516
   42       21.684847
   43       23.125460
   44       23.126255
   45       24.464250
   46       24.464676
   47       24.987402
   48       24.988026
   49       25.282837
   50       25.283290
   51       28.430885
   52       28.431767
   53       29.000569
   54       29.000906
   55       29.726349
   56       29.726644
   57       29.913540
   58       29.913779
   59       30.074023
   60       30.074232
 
  0.5000000E-01 -0.4000000E+00  0.0000000E+00  0.1500000E-02
    1       -2.221214
    2       -2.220925
    3       -0.583907
    4       -0.583751
    5       -0.400794
    6       -0.400715
    7        0.552153
    8        0.552356
    9        0.765941
   10        0.766178
   11        1.416357
   12        1.416618
   13        1.936267
   14        1.936363
   15        6.571156
   16        6.571372
   17        7.295267
   18        7.295494
   19        9.771769
   20        9.772482
   21       10.363424
   22       10.363651
   23       10.596591
   24       10.596793
   25       11.170981
   26       11.171417
   27       14.594731
   28       14.594841
   29       14.983267
   30       14.983519
   31       16.014998
   32       16.015578
   33       18.165314
   34       18.165905
   35       19.133918
   36       19.134522
   37       19.519988
   38       19.520414
   39       20.996814
   40       20.997098
   41       21.684593
   42       21.684919
   43       23.125462
   44       23.126260
   45       24.464292
   46       24.464715
   47       24.987451
   48       24.988077
   49       25.282848
   50       25.283300
   51       28.430913
   52       28.431794
   53       29.000714
   54       29.001051
   55       29.726710
   56       29.727082
   57       29.913758
   58       29.914075
   59       30.074143
   60       30.074361
 
 -0.4500000E+00  0.5000000E-01  0.5000000E-01  0.1500000E-02
    1       -2.031223
    2       -2.031033
    3       -0.573350
    4       -0.573196
    5       -0.046800
    6       -0.046433
    7        0.321650
    8        0.322008
    9        0.662096
   10        0.662259
   11        1.455859
   12        1.456163
   13        1.538007
   14        1.538240
   15        6.509789
   16        6.509921
   17        7.108377
   18        7.108523
   19        9.679312
   20        9.679997
   21       10.514486
   22       10.514787
   23       10.571098
   24       10.571301
   25       10.978613
   26       10.978931
   27       15.066194
   28       15.066506
   29       15.721433
   30       15.721739
   31       16.529385
   32       16.530065
   33       17.617689
   34       17.618396
   35       18.639698
   36       18.640082
   37       18.981630
   38       18.982034
   39       21.872965
   40       21.873352
   41       22.069113
   42       22.069522
   43       23.589893
   44       23.590289
   45       24.053206
   46       24.053593
   47       24.606976
   48       24.607874
   49       26.514811
   50       26.515484
   51       27.036209
   52       27.037027
   53       28.446239
   54       28.446565
   55       29.477124
   56       29.477553
   57       29.740709
   58       29.740823
   59       29.825988
   60       29.826408
 
  0.5000000E-01  0.0000000E+00  0.5000000E+00  0.1500000E-02
    1       -2.031224
    2       -2.031033
    3       -0.573355
    4       -0.573193
    5       -0.046732
    6       -0.046462
    7        0.321742
    8        0.321877
    9        0.662101
   10        0.662256
   11        1.455916
   12        1.456058
   13        1.538023
   14        1.538273
   15        6.509798
   16        6.509927
   17        7.108379
   18        7.108520
   19        9.679279
   20        9.679965
   21       10.514487
   22       10.514777
   23       10.571165
   24       10.571335
   25       10.978588
   26       10.978907
   27       15.066155
   28       15.066520
   29       15.721460
   30       15.721773
   31       16.529397
   32       16.530057
   33       17.617691
   34       17.618399
   35       18.639731
   36       18.640115
   37       18.981582
   38       18.981987
   39       21.872959
   40       21.873344
   41       22.069080
   42       22.069491
   43       23.589968
   44       23.590365
   45       24.053129
   46       24.053515
   47       24.606999
   48       24.607898
   49       26.514867
   50       26.515541
   51       27.036182
   52       27.037002
   53       28.446203
   54       28.446528
   55       29.476808
   56       29.477232
   57       29.740703
   58       29.740821
   59       29.826343
   60       29.826766
 
 -0.4500000E+00  0.5000000E+00  0.5000000E+00  0.1500000E-02
    1       -2.031235
    2       -2.031029
    3       -0.573396
    4       -0.572915
    5       -0.046804
    6       -0.046486
    7        0.321533
    8        0.321912
    9        0.662061
   10        0.662534
   11        1.455560
   12        1.456144
   13        1.538100
   14        1.538131
   15        6.509675
   16        6.510018
   17        7.108254
   18        7.108618
   19        9.679333
   20        9.680030
   21       10.514514
   22       10.514795
   23       10.571117
   24       10.571496
   25       10.978608
   26       10.979033
   27       15.066155
   28       15.066648
   29       15.721442
   30       15.721922
   31       16.529369
   32       16.530027
   33       17.617664
   34       17.618371
   35       18.639755
   36       18.640140
   37       18.981634
   38       18.982040
   39       21.872951
   40       21.873340
   41       22.069128
   42       22.069541
   43       23.589830
   44       23.590232
   45       24.053052
   46       24.053444
   47       24.606960
   48       24.607855
   49       26.514790
   50       26.515454
   51       27.036184
   52       27.037004
   53       28.446127
   54       28.446449
   55       29.476518
   56       29.476944
   57       29.740689
   58       29.740828
   59       29.825789
   60       29.826218
 
  0.5000000E-01  0.5000000E+00  0.0000000E+00  0.1500000E-02
    1       -2.031224
    2       -2.031033
    3       -0.573355
    4       -0.573193
    5       -0.046732
    6       -0.046462
    7        0.321742
    8        0.321877
    9        0.662101
   10        0.662256
   11        1.455916
   12        1.456058
   13        1.538023
   14        1.538273
   15        6.509798
   16        6.509927
   17        7.108379
   18        7.108520
   19        9.679279
   20        9.679965
   21       10.514487
   22       10.514777
   23       10.571165
   24       10.571335
   25       10.978588
   26       10.978907
   27       15.066155
   28       15.066520
   29       15.721460
   30       15.721773
   31       16.529397