Automatically generated mesh
     670
Reciprocal lattice
    0.05000000000000    0.05000000000000    0.05000000000000            24
    0.05000000000000    0.00000000000000    0.00000000000000            72
    0.15000000000000    0.05000000000000    0.05000000000000            72
    0.05000000000000    0.00000000000000   -0.10000000000000            72
    0.15000000000000    0.10000000000000    0.10000000000000            72
    0.05000000000000   -0.10000000000000    0.00000000000000            72
    0.25000000000000    0.05000000000000    0.05000000000000            72
    0.05000000000000    0.00000000000000   -0.20000000000000            72
    0.25000000000000    0.20000000000000    0.20000000000000            72
    0.05000000000000   -0.20000000000000    0.00000000000000            72
    0.35000000000000    0.05000000000000    0.05000000000000            72
    0.05000000000000    0.00000000000000   -0.30000000000000            72
    0.35000000000000    0.30000000000000    0.30000000000000            72
    0.05000000000000   -0.30000000000000    0.00000000000000            72
    0.45000000000000    0.05000000000000    0.05000000000000            72
    0.05000000000000    0.00000000000000   -0.40000000000000            72
    0.45000000000000    0.40000000000000    0.40000000000000            72
    0.05000000000000   -0.40000000000000    0.00000000000000            72
   -0.45000000000000    0.05000000000000    0.05000000000000            72
    0.05000000000000    0.00000000000000    0.50000000000000            72
   -0.45000000000000    0.50000000000000    0.50000000000000            72
    0.05000000000000    0.50000000000000    0.00000000000000            72
   -0.35000000000000    0.05000000000000    0.05000000000000            72
    0.05000000000000    0.00000000000000    0.40000000000000            72
   -0.35000000000000   -0.40000000000000   -0.40000000000000            72
    0.05000000000000    0.40000000000000    0.00000000000000            72
   -0.25000000000000    0.05000000000000    0.05000000000000            72
    0.05000000000000    0.00000000000000    0.30000000000000            72
   -0.25000000000000   -0.30000000000000   -0.30000000000000            72
    0.05000000000000    0.30000000000000    0.00000000000000            72
   -0.15000000000000    0.05000000000000    0.05000000000000            72
    0.05000000000000    0.00000000000000    0.20000000000000            72
   -0.15000000000000   -0.20000000000000   -0.20000000000000            72
    0.05000000000000    0.20000000000000    0.00000000000000            72
   -0.05000000000000    0.05000000000000    0.05000000000000            72
    0.05000000000000    0.00000000000000    0.10000000000000            72
   -0.05000000000000   -0.10000000000000   -0.10000000000000            72
    0.05000000000000    0.10000000000000    0.00000000000000            72
    0.15000000000000    0.15000000000000    0.05000000000000            72
    0.15000000000000    0.10000000000000    0.00000000000000            72
    0.15000000000000    0.00000000000000    0.10000000000000            72
    0.05000000000000   -0.10000000000000   -0.10000000000000            72
    0.25000000000000    0.15000000000000    0.05000000000000            72
    0.15000000000000    0.10000000000000   -0.10000000000000            72
    0.25000000000000    0.10000000000000    0.20000000000000            72
    0.05000000000000   -0.20000000000000   -0.10000000000000            72
    0.10000000000000    0.20000000000000   -0.05000000000000            72
    0.10000000000000   -0.10000000000000   -0.15000000000000            72
   -0.20000000000000   -0.10000000000000   -0.25000000000000            72
   -0.25000000000000   -0.05000000000000   -0.15000000000000            72
    0.35000000000000    0.15000000000000    0.05000000000000            72
    0.15000000000000    0.10000000000000   -0.20000000000000            72
    0.35000000000000    0.20000000000000    0.30000000000000            72
    0.05000000000000   -0.30000000000000   -0.10000000000000            72
    0.10000000000000    0.30000000000000   -0.05000000000000            72
    0.20000000000000   -0.10000000000000   -0.15000000000000            72
   -0.30000000000000   -0.20000000000000   -0.35000000000000            72
   -0.35000000000000   -0.05000000000000   -0.15000000000000            72
    0.45000000000000    0.15000000000000    0.05000000000000            72
    0.15000000000000    0.10000000000000   -0.30000000000000            72
    0.45000000000000    0.30000000000000    0.40000000000000            72
    0.05000000000000   -0.40000000000000   -0.10000000000000            72
    0.10000000000000    0.40000000000000   -0.05000000000000            72
    0.30000000000000   -0.10000000000000   -0.15000000000000            72
   -0.40000000000000   -0.30000000000000   -0.45000000000000            72
   -0.45000000000000   -0.05000000000000   -0.15000000000000            72
   -0.45000000000000    0.15000000000000    0.05000000000000            72
    0.15000000000000    0.10000000000000   -0.40000000000000            72
   -0.45000000000000    0.40000000000000    0.50000000000000            72
    0.05000000000000    0.50000000000000   -0.10000000000000            72
    0.10000000000000    0.50000000000000   -0.05000000000000            72
    0.40000000000000   -0.10000000000000   -0.15000000000000            72
    0.50000000000000   -0.40000000000000    0.45000000000000            72
    0.45000000000000   -0.05000000000000   -0.15000000000000            72
   -0.35000000000000    0.15000000000000    0.05000000000000            72
    0.15000000000000    0.10000000000000    0.50000000000000            72
   -0.35000000000000    0.50000000000000   -0.40000000000000            72
    0.05000000000000    0.40000000000000   -0.10000000000000            72
    0.10000000000000   -0.40000000000000   -0.05000000000000            72
    0.50000000000000   -0.10000000000000   -0.15000000000000            72
    0.40000000000000    0.50000000000000    0.35000000000000            72
    0.35000000000000   -0.05000000000000   -0.15000000000000            72
   -0.25000000000000    0.15000000000000    0.05000000000000            72
    0.15000000000000    0.10000000000000    0.40000000000000            72
   -0.25000000000000   -0.40000000000000   -0.30000000000000            72
    0.05000000000000    0.30000000000000   -0.10000000000000            72
    0.10000000000000   -0.30000000000000   -0.05000000000000            72
   -0.40000000000000   -0.10000000000000   -0.15000000000000            72
    0.30000000000000    0.40000000000000    0.25000000000000            72
    0.25000000000000   -0.05000000000000   -0.15000000000000            72
   -0.15000000000000    0.15000000000000    0.05000000000000            72
    0.15000000000000    0.10000000000000    0.30000000000000            72
   -0.15000000000000   -0.30000000000000   -0.20000000000000            72
    0.05000000000000    0.20000000000000   -0.10000000000000            72
    0.10000000000000   -0.20000000000000   -0.05000000000000            72
   -0.30000000000000   -0.10000000000000   -0.15000000000000            72
    0.20000000000000    0.30000000000000    0.15000000000000            72
    0.15000000000000   -0.05000000000000   -0.15000000000000            72
   -0.05000000000000    0.15000000000000    0.05000000000000            72
    0.15000000000000    0.10000000000000    0.20000000000000            72
   -0.05000000000000   -0.20000000000000   -0.10000000000000            72
    0.05000000000000    0.10000000000000   -0.10000000000000            72
    0.10000000000000   -0.10000000000000   -0.05000000000000            72
   -0.20000000000000   -0.10000000000000   -0.15000000000000            72
    0.10000000000000    0.20000000000000    0.05000000000000            72
    0.05000000000000   -0.05000000000000   -0.15000000000000            72
    0.25000000000000    0.25000000000000    0.05000000000000            72
    0.25000000000000    0.20000000000000    0.00000000000000            72
    0.25000000000000    0.00000000000000    0.20000000000000            72
    0.05000000000000   -0.20000000000000   -0.20000000000000            72
    0.35000000000000    0.25000000000000    0.05000000000000            72
    0.25000000000000    0.20000000000000   -0.10000000000000            72
    0.35000000000000    0.10000000000000    0.30000000000000            72
    0.05000000000000   -0.30000000000000   -0.20000000000000            72
    0.20000000000000    0.30000000000000   -0.05000000000000            72
    0.10000000000000   -0.20000000000000   -0.25000000000000            72
   -0.30000000000000   -0.10000000000000   -0.35000000000000            72
   -0.35000000000000   -0.05000000000000   -0.25000000000000            72
    0.45000000000000    0.25000000000000    0.05000000000000            72
    0.25000000000000    0.20000000000000   -0.20000000000000            72
    0.45000000000000    0.20000000000000    0.40000000000000            72
    0.05000000000000   -0.40000000000000   -0.20000000000000            72
    0.20000000000000    0.40000000000000   -0.05000000000000            72
    0.20000000000000   -0.20000000000000   -0.25000000000000            72
   -0.40000000000000   -0.20000000000000   -0.45000000000000            72
   -0.45000000000000   -0.05000000000000   -0.25000000000000            72
   -0.45000000000000    0.25000000000000    0.05000000000000            72
    0.25000000000000    0.20000000000000   -0.30000000000000            72
   -0.45000000000000    0.30000000000000    0.50000000000000            72
    0.05000000000000    0.50000000000000   -0.20000000000000            72
    0.20000000000000    0.50000000000000   -0.05000000000000            72
    0.30000000000000   -0.20000000000000   -0.25000000000000            72
    0.50000000000000   -0.30000000000000    0.45000000000000            72
    0.45000000000000   -0.05000000000000   -0.25000000000000            72
   -0.35000000000000    0.25000000000000    0.05000000000000            72
    0.25000000000000    0.20000000000000   -0.40000000000000            72
   -0.35000000000000    0.40000000000000   -0.40000000000000            72
    0.05000000000000    0.40000000000000   -0.20000000000000            72
    0.20000000000000   -0.40000000000000   -0.05000000000000            72
    0.40000000000000   -0.20000000000000   -0.25000000000000            72
    0.40000000000000   -0.40000000000000    0.35000000000000            72
    0.35000000000000   -0.05000000000000   -0.25000000000000            72
   -0.25000000000000    0.25000000000000    0.05000000000000            72
    0.25000000000000    0.20000000000000    0.50000000000000            72
   -0.25000000000000    0.50000000000000   -0.30000000000000            72
    0.05000000000000    0.30000000000000   -0.20000000000000            72
    0.20000000000000   -0.30000000000000   -0.05000000000000            72
    0.50000000000000   -0.20000000000000   -0.25000000000000            72
    0.30000000000000    0.50000000000000    0.25000000000000            72
    0.25000000000000   -0.05000000000000   -0.25000000000000            72
   -0.15000000000000    0.25000000000000    0.05000000000000            72
    0.25000000000000    0.20000000000000    0.40000000000000            72
   -0.15000000000000   -0.40000000000000   -0.20000000000000            72
    0.05000000000000    0.20000000000000   -0.20000000000000            72
    0.20000000000000   -0.20000000000000   -0.05000000000000            72
   -0.40000000000000   -0.20000000000000   -0.25000000000000            72
    0.20000000000000    0.40000000000000    0.15000000000000            72
    0.15000000000000   -0.05000000000000   -0.25000000000000            72
   -0.05000000000000    0.25000000000000    0.05000000000000            72
    0.25000000000000    0.20000000000000    0.30000000000000            72
   -0.05000000000000   -0.30000000000000   -0.10000000000000            72
    0.05000000000000    0.10000000000000   -0.20000000000000            72
    0.20000000000000   -0.10000000000000   -0.05000000000000            72
   -0.30000000000000   -0.20000000000000   -0.25000000000000            72
    0.10000000000000    0.30000000000000    0.05000000000000            72
    0.05000000000000   -0.05000000000000   -0.25000000000000            72
    0.35000000000000    0.35000000000000    0.05000000000000            72
    0.35000000000000    0.30000000000000    0.00000000000000            72
    0.35000000000000    0.00000000000000    0.30000000000000            72
    0.05000000000000   -0.30000000000000   -0.30000000000000            72
    0.45000000000000    0.35000000000000    0.05000000000000            72
    0.35000000000000    0.30000000000000   -0.10000000000000            72
    0.45000000000000    0.10000000000000    0.40000000000000            72
    0.05000000000000   -0.40000000000000   -0.30000000000000            72
    0.30000000000000    0.40000000000000   -0.05000000000000            72
    0.10000000000000   -0.30000000000000   -0.35000000000000            72
   -0.40000000000000   -0.10000000000000   -0.45000000000000            72
   -0.45000000000000   -0.05000000000000   -0.35000000000000            72
   -0.45000000000000    0.35000000000000    0.05000000000000            72
    0.35000000000000    0.30000000000000   -0.20000000000000            72
   -0.45000000000000    0.20000000000000    0.50000000000000            72
    0.05000000000000    0.50000000000000   -0.30000000000000            72
    0.30000000000000    0.50000000000000   -0.05000000000000            72
    0.20000000000000   -0.30000000000000   -0.35000000000000            72
    0.50000000000000   -0.20000000000000    0.45000000000000            72
    0.45000000000000   -0.05000000000000   -0.35000000000000            72
   -0.35000000000000    0.35000000000000    0.05000000000000            72
    0.35000000000000    0.30000000000000   -0.30000000000000            72
   -0.35000000000000    0.30000000000000   -0.40000000000000            72
    0.05000000000000    0.40000000000000   -0.30000000000000            72
    0.30000000000000   -0.40000000000000   -0.05000000000000            72
    0.30000000000000   -0.30000000000000   -0.35000000000000            72
    0.40000000000000   -0.30000000000000    0.35000000000000            72
    0.35000000000000   -0.05000000000000   -0.35000000000000            72
   -0.25000000000000    0.35000000000000    0.05000000000000            72
    0.35000000000000    0.30000000000000   -0.40000000000000            72
   -0.25000000000000    0.40000000000000   -0.30000000000000            72
    0.05000000000000    0.30000000000000   -0.30000000000000            72
    0.30000000000000   -0.30000000000000   -0.05000000000000            72
    0.40000000000000   -0.30000000000000   -0.35000000000000            72
    0.30000000000000   -0.40000000000000    0.25000000000000            72
    0.25000000000000   -0.05000000000000   -0.35000000000000            72
   -0.15000000000000    0.35000000000000    0.05000000000000            72
    0.35000000000000    0.30000000000000    0.50000000000000            72
   -0.15000000000000    0.50000000000000   -0.20000000000000            72
    0.05000000000000    0.20000000000000   -0.30000000000000            72
    0.30000000000000   -0.20000000000000   -0.05000000000000            72
    0.50000000000000   -0.30000000000000   -0.35000000000000            72
    0.20000000000000    0.50000000000000    0.15000000000000            72
    0.15000000000000   -0.05000000000000   -0.35000000000000            72
   -0.05000000000000    0.35000000000000    0.05000000000000            72
    0.35000000000000    0.30000000000000    0.40000000000000            72
   -0.05000000000000   -0.40000000000000   -0.10000000000000            72
    0.05000000000000    0.10000000000000   -0.30000000000000            72
    0.30000000000000   -0.10000000000000   -0.05000000000000            72
   -0.40000000000000   -0.30000000000000   -0.35000000000000            72
    0.10000000000000    0.40000000000000    0.05000000000000            72
    0.05000000000000   -0.05000000000000   -0.35000000000000            72
    0.45000000000000    0.45000000000000    0.05000000000000            72
    0.45000000000000    0.40000000000000    0.00000000000000            72
    0.45000000000000    0.00000000000000    0.40000000000000            72
    0.05000000000000   -0.40000000000000   -0.40000000000000            72
   -0.45000000000000    0.45000000000000    0.05000000000000            72
    0.45000000000000    0.40000000000000   -0.10000000000000            72
   -0.45000000000000    0.10000000000000    0.50000000000000            72
    0.05000000000000    0.50000000000000   -0.40000000000000            72
    0.40000000000000    0.50000000000000   -0.05000000000000            72
    0.10000000000000   -0.40000000000000   -0.45000000000000            72
    0.50000000000000   -0.10000000000000    0.45000000000000            72
    0.45000000000000   -0.05000000000000   -0.45000000000000            72
   -0.35000000000000    0.45000000000000    0.05000000000000            72
    0.45000000000000    0.40000000000000   -0.20000000000000            72
   -0.35000000000000    0.20000000000000   -0.40000000000000            72
    0.05000000000000    0.40000000000000   -0.40000000000000            72
    0.40000000000000   -0.40000000000000   -0.05000000000000            72
    0.20000000000000   -0.40000000000000   -0.45000000000000            72
    0.40000000000000   -0.20000000000000    0.35000000000000            72
    0.35000000000000   -0.05000000000000   -0.45000000000000            72
   -0.25000000000000    0.45000000000000    0.05000000000000            72
    0.45000000000000    0.40000000000000   -0.30000000000000            72
   -0.25000000000000    0.30000000000000   -0.30000000000000            72
    0.05000000000000    0.30000000000000   -0.40000000000000            72
    0.40000000000000   -0.30000000000000   -0.05000000000000            72
    0.30000000000000   -0.40000000000000   -0.45000000000000            72
    0.30000000000000   -0.30000000000000    0.25000000000000            72
    0.25000000000000   -0.05000000000000   -0.45000000000000            72
   -0.15000000000000    0.45000000000000    0.05000000000000            72
    0.45000000000000    0.40000000000000   -0.40000000000000            72
   -0.15000000000000    0.40000000000000   -0.20000000000000            72
    0.05000000000000    0.20000000000000   -0.40000000000000            72
    0.40000000000000   -0.20000000000000   -0.05000000000000            72
    0.40000000000000   -0.40000000000000   -0.45000000000000            72
    0.20000000000000   -0.40000000000000    0.15000000000000            72
    0.15000000000000   -0.05000000000000   -0.45000000000000            72
   -0.05000000000000    0.45000000000000    0.05000000000000            72
    0.45000000000000    0.40000000000000    0.50000000000000            72
   -0.05000000000000    0.50000000000000   -0.10000000000000            72
    0.05000000000000    0.10000000000000   -0.40000000000000            72
    0.40000000000000   -0.10000000000000   -0.05000000000000            72
    0.50000000000000   -0.40000000000000   -0.45000000000000            72
    0.10000000000000    0.50000000000000    0.05000000000000            72
    0.05000000000000   -0.05000000000000   -0.45000000000000            72
   -0.45000000000000   -0.45000000000000    0.05000000000000            72
   -0.45000000000000    0.50000000000000    0.00000000000000            72
   -0.45000000000000    0.00000000000000    0.50000000000000            72
    0.05000000000000    0.50000000000000    0.50000000000000            72
   -0.35000000000000   -0.45000000000000    0.05000000000000            72
   -0.45000000000000    0.50000000000000   -0.10000000000000            72
   -0.35000000000000    0.10000000000000   -0.40000000000000            72
    0.05000000000000    0.40000000000000    0.50000000000000            72
    0.50000000000000   -0.40000000000000   -0.05000000000000            72
    0.10000000000000    0.50000000000000    0.45000000000000            72
    0.40000000000000   -0.10000000000000    0.35000000000000            72
    0.35000000000000   -0.05000000000000    0.45000000000000            72
   -0.25000000000000   -0.45000000000000    0.05000000000000            72
   -0.45000000000000    0.50000000000000   -0.20000000000000            72
   -0.25000000000000    0.20000000000000   -0.30000000000000            72
    0.05000000000000    0.30000000000000    0.50000000000000            72
    0.50000000000000   -0.30000000000000   -0.05000000000000            72
    0.20000000000000    0.50000000000000    0.45000000000000            72
    0.30000000000000   -0.20000000000000    0.25000000000000            72
    0.25000000000000   -0.05000000000000    0.45000000000000            72
   -0.15000000000000   -0.45000000000000    0.05000000000000            72
   -0.45000000000000    0.50000000000000   -0.30000000000000            72
   -0.15000000000000    0.30000000000000   -0.20000000000000            72
    0.05000000000000    0.20000000000000    0.50000000000000            72
    0.50000000000000   -0.20000000000000   -0.05000000000000            72
    0.30000000000000    0.50000000000000    0.45000000000000            72
    0.20000000000000   -0.30000000000000    0.15000000000000            72
    0.15000000000000   -0.05000000000000    0.45000000000000            72
   -0.35000000000000   -0.35000000000000    0.05000000000000            72
   -0.35000000000000   -0.40000000000000    0.00000000000000            72
   -0.35000000000000    0.00000000000000   -0.40000000000000            72
    0.05000000000000    0.40000000000000    0.40000000000000            72
   -0.25000000000000   -0.35000000000000    0.05000000000000            72
   -0.35000000000000   -0.40000000000000   -0.10000000000000            72
   -0.25000000000000    0.10000000000000   -0.30000000000000            72
    0.05000000000000    0.30000000000000    0.40000000000000            72
   -0.40000000000000   -0.30000000000000   -0.05000000000000            72
    0.10000000000000    0.40000000000000    0.35000000000000            72
    0.30000000000000   -0.10000000000000    0.25000000000000            72
    0.25000000000000   -0.05000000000000    0.35000000000000            72
   -0.15000000000000   -0.35000000000000    0.05000000000000            72
   -0.35000000000000   -0.40000000000000   -0.20000000000000            72
   -0.15000000000000    0.20000000000000   -0.20000000000000            72
    0.05000000000000    0.20000000000000    0.40000000000000            72
   -0.40000000000000   -0.20000000000000   -0.05000000000000            72
    0.20000000000000    0.40000000000000    0.35000000000000            72
    0.20000000000000   -0.20000000000000    0.15000000000000            72
    0.15000000000000   -0.05000000000000    0.35000000000000            72
   -0.25000000000000   -0.25000000000000    0.05000000000000            72
   -0.25000000000000   -0.30000000000000    0.00000000000000            72
   -0.25000000000000    0.00000000000000   -0.30000000000000            72
    0.05000000000000    0.30000000000000    0.30000000000000            72
   -0.15000000000000   -0.25000000000000    0.05000000000000            72
   -0.25000000000000   -0.30000000000000   -0.10000000000000            72
   -0.15000000000000    0.10000000000000   -0.20000000000000            72
    0.05000000000000    0.20000000000000    0.30000000000000            72
   -0.30000000000000   -0.20000000000000   -0.05000000000000            72
    0.10000000000000    0.30000000000000    0.25000000000000            72
    0.20000000000000   -0.10000000000000    0.15000000000000            72
    0.15000000000000   -0.05000000000000    0.25000000000000            72
   -0.15000000000000   -0.15000000000000    0.05000000000000            72
   -0.15000000000000   -0.20000000000000    0.00000000000000            72
   -0.15000000000000    0.00000000000000   -0.20000000000000            72
    0.05000000000000    0.20000000000000    0.20000000000000            72
    0.15000000000000    0.15000000000000    0.15000000000000            24
    0.15000000000000    0.00000000000000    0.00000000000000            72
    0.25000000000000    0.15000000000000    0.15000000000000            72
    0.15000000000000    0.00000000000000   -0.10000000000000            72
    0.25000000000000    0.10000000000000    0.10000000000000            72
    0.15000000000000   -0.10000000000000    0.00000000000000            72
    0.35000000000000    0.15000000000000    0.15000000000000            72
    0.15000000000000    0.00000000000000   -0.20000000000000            72
    0.35000000000000    0.20000000000000    0.20000000000000            72
    0.15000000000000   -0.20000000000000    0.00000000000000            72
    0.45000000000000    0.15000000000000    0.15000000000000            72
    0.15000000000000    0.00000000000000   -0.30000000000000            72
    0.45000000000000    0.30000000000000    0.30000000000000            72
    0.15000000000000   -0.30000000000000    0.00000000000000            72
   -0.45000000000000    0.15000000000000    0.15000000000000            72
    0.15000000000000    0.00000000000000   -0.40000000000000            72
   -0.45000000000000    0.40000000000000    0.40000000000000            72
    0.15000000000000   -0.40000000000000    0.00000000000000            72
   -0.35000000000000    0.15000000000000    0.15000000000000            72
    0.15000000000000    0.00000000000000    0.50000000000000            72
   -0.35000000000000    0.50000000000000    0.50000000000000            72
    0.15000000000000    0.50000000000000    0.00000000000000            72
   -0.25000000000000    0.15000000000000    0.15000000000000            72
    0.15000000000000    0.00000000000000    0.40000000000000            72
   -0.25000000000000   -0.40000000000000   -0.40000000000000            72
    0.15000000000000    0.40000000000000    0.00000000000000            72
   -0.15000000000000    0.15000000000000    0.15000000000000            72
    0.15000000000000    0.00000000000000    0.30000000000000            72
   -0.15000000000000   -0.30000000000000   -0.30000000000000            72
    0.15000000000000    0.30000000000000    0.00000000000000            72
    0.25000000000000    0.25000000000000    0.15000000000000            72
    0.25000000000000    0.10000000000000    0.00000000000000            72
    0.25000000000000    0.00000000000000    0.10000000000000            72
    0.15000000000000   -0.10000000000000   -0.10000000000000            72
    0.35000000000000    0.25000000000000    0.15000000000000            72
    0.25000000000000    0.10000000000000   -0.10000000000000            72
    0.35000000000000    0.10000000000000    0.20000000000000            72
    0.15000000000000   -0.20000000000000   -0.10000000000000            72
    0.10000000000000    0.20000000000000   -0.15000000000000            72
    0.10000000000000   -0.10000000000000   -0.25000000000000            72
   -0.20000000000000   -0.10000000000000   -0.35000000000000            72
   -0.35000000000000   -0.15000000000000   -0.25000000000000            72
    0.45000000000000    0.25000000000000    0.15000000000000            72
    0.25000000000000    0.10000000000000   -0.20000000000000            72
    0.45000000000000    0.20000000000000    0.30000000000000            72
    0.15000000000000   -0.30000000000000   -0.10000000000000            72
    0.10000000000000    0.30000000000000   -0.15000000000000            72
    0.20000000000000   -0.10000000000000   -0.25000000000000            72
   -0.30000000000000   -0.20000000000000   -0.45000000000000            72
   -0.45000000000000   -0.15000000000000   -0.25000000000000            72
   -0.45000000000000    0.25000000000000    0.15000000000000            72
    0.25000000000000    0.10000000000000   -0.30000000000000            72
   -0.45000000000000    0.30000000000000    0.40000000000000            72
    0.15000000000000   -0.40000000000000   -0.10000000000000            72
    0.10000000000000    0.40000000000000   -0.15000000000000            72
    0.30000000000000   -0.10000000000000   -0.25000000000000            72
   -0.40000000000000   -0.30000000000000    0.45000000000000            72
    0.45000000000000   -0.15000000000000   -0.25000000000000            72
   -0.35000000000000    0.25000000000000    0.15000000000000            72
    0.25000000000000    0.10000000000000   -0.40000000000000            72
   -0.35000000000000    0.40000000000000    0.50000000000000            72
    0.15000000000000    0.50000000000000   -0.10000000000000            72
    0.10000000000000    0.50000000000000   -0.15000000000000            72
    0.40000000000000   -0.10000000000000   -0.25000000000000            72
    0.50000000000000   -0.40000000000000    0.35000000000000            72
    0.35000000000000   -0.15000000000000   -0.25000000000000            72
   -0.25000000000000    0.25000000000000    0.15000000000000            72
    0.25000000000000    0.10000000000000    0.50000000000000            72
   -0.25000000000000    0.50000000000000   -0.40000000000000            72
    0.15000000000000    0.40000000000000   -0.10000000000000            72
    0.10000000000000   -0.40000000000000   -0.15000000000000            72
    0.50000000000000   -0.10000000000000   -0.25000000000000            72
    0.40000000000000    0.50000000000000    0.25000000000000            72