bcc Na                                  
   4.20787723200000     
     1.000000    0.000000    0.000000
     0.000000    1.000000    0.000000
     0.000000    0.000000    1.000000
   Na
     2
Direct
  0.000000  0.000000  0.000000
  0.500000  0.500000  0.500000
 
   20   20   20
 0.10941082857E+01 0.10085054340E+01 0.87115617994E+00 0.91102910409E+00 0.12204313590E+01
 0.16563260071E+01 0.19856995951E+01 0.21255295293E+01 0.21353146790E+01 0.21037863191E+01
 0.20877896779E+01 0.21037863191E+01 0.21353146790E+01 0.21255295293E+01 0.19856995951E+01
 0.16563260071E+01 0.12204313590E+01 0.91102910409E+00 0.87115617994E+00 0.10085054340E+01
 0.10085054340E+01 0.94582591195E+00 0.86162030778E+00 0.95083087329E+00 0.12798676782E+01
 0.17044503182E+01 0.20112010378E+01 0.21356964080E+01 0.21389465019E+01 0.21059992252E+01
 0.20899852449E+01 0.21059992252E+01 0.21389465019E+01 0.21356964080E+01 0.20112010378E+01
 0.17044503182E+01 0.12798676782E+01 0.95083087329E+00 0.86162030778E+00 0.94582591195E+00
 0.87115617994E+00 0.86162030778E+00 0.89819720612E+00 0.10926329489E+01 0.14506889743E+01
 0.18303931166E+01 0.20740951899E+01 0.21588923320E+01 0.21467515065E+01 0.21115565415E+01
 0.20960372188E+01 0.21115565415E+01 0.21467515065E+01 0.21588923320E+01 0.20740951899E+01
 0.18303931166E+01 0.14506889743E+01 0.10926329489E+01 0.89819720612E+00 0.86162030778E+00
 0.91102910409E+00 0.95083087329E+00 0.10926329489E+01 0.13587282633E+01 0.16971063563E+01
 0.19849370580E+01 0.21419623186E+01 0.21783359244E+01 0.21515566439E+01 0.21175417982E+01
 0.21041256801E+01 0.21175417982E+01 0.21515566439E+01 0.21783359244E+01 0.21419623186E+01
 0.19849370580E+01 0.16971063563E+01 0.13587282633E+01 0.10926329489E+01 0.95083087329E+00
 0.12204313590E+01 0.12798676782E+01 0.14506889743E+01 0.16971063563E+01 0.19427404196E+01
 0.21126601446E+01 0.21833746810E+01 0.21795592406E+01 0.21471426263E+01 0.21203979759E+01
 0.21111611115E+01 0.21203979759E+01 0.21471426263E+01 0.21795592406E+01 0.21833746810E+01
 0.21126601446E+01 0.19427404196E+01 0.16971063563E+01 0.14506889743E+01 0.12798676782E+01
 0.16563260071E+01 0.17044503182E+01 0.18303931166E+01 0.19849370580E+01 0.21126601446E+01
 0.21793717538E+01 0.21860601264E+01 0.21604120943E+01 0.21329224164E+01 0.21179086237E+01
 0.21139644885E+01 0.21179086237E+01 0.21329224164E+01 0.21604120943E+01 0.21860601264E+01
 0.21793717538E+01 0.21126601446E+01 0.19849370580E+01 0.18303931166E+01 0.17044503182E+01
 0.19856995951E+01 0.20112010378E+01 0.20740951899E+01 0.21419623186E+01 0.21833746810E+01
 0.21860601264E+01 0.21612533196E+01 0.21318973357E+01 0.21147045867E+01 0.21107373121E+01
 0.21111611115E+01 0.21107373121E+01 0.21147045867E+01 0.21318973357E+01 0.21612533196E+01
 0.21860601264E+01 0.21833746810E+01 0.21419623186E+01 0.20740951899E+01 0.20112010378E+01
 0.21255295293E+01 0.21356964080E+01 0.21588923320E+01 0.21783359244E+01 0.21795592406E+01
 0.21604120943E+01 0.21318973357E+01 0.21092576740E+01 0.21005285025E+01 0.21020029148E+01
 0.21041256801E+01 0.21020029148E+01 0.21005285025E+01 0.21092576740E+01 0.21318973357E+01
 0.21604120943E+01 0.21795592406E+01 0.21783359244E+01 0.21588923320E+01 0.21356964080E+01
 0.21353146790E+01 0.21389465019E+01 0.21467515065E+01 0.21515566439E+01 0.21471426263E+01
 0.21329224164E+01 0.21147045867E+01 0.21005285025E+01 0.20946747368E+01 0.20949953407E+01
 0.20960372188E+01 0.20949953407E+01 0.20946747368E+01 0.21005285025E+01 0.21147045867E+01
 0.21329224164E+01 0.21471426263E+01 0.21515566439E+01 0.21467515065E+01 0.21389465019E+01
 0.21037863191E+01 0.21059992252E+01 0.21115565415E+01 0.21175417982E+01 0.21203979759E+01
 0.21179086237E+01 0.21107373121E+01 0.21020029148E+01 0.20949953407E+01 0.20911203903E+01
 0.20899852449E+01 0.20911203903E+01 0.20949953407E+01 0.21020029148E+01 0.21107373121E+01
 0.21179086237E+01 0.21203979759E+01 0.21175417982E+01 0.21115565415E+01 0.21059992252E+01
 0.20877896779E+01 0.20899852449E+01 0.20960372188E+01 0.21041256801E+01 0.21111611115E+01
 0.21139644885E+01 0.21111611115E+01 0.21041256801E+01 0.20960372188E+01 0.20899852449E+01
 0.20877896779E+01 0.20899852449E+01 0.20960372188E+01 0.21041256801E+01 0.21111611115E+01
 0.21139644885E+01 0.21111611115E+01 0.21041256801E+01 0.20960372188E+01 0.20899852449E+01
 0.21037863191E+01 0.21059992252E+01 0.21115565415E+01 0.21175417982E+01 0.21203979759E+01
 0.21179086237E+01 0.21107373121E+01 0.21020029148E+01 0.20949953407E+01 0.20911203903E+01
 0.20899852449E+01 0.20911203903E+01 0.20949953407E+01 0.21020029148E+01 0.21107373121E+01
 0.21179086237E+01 0.21203979759E+01 0.21175417982E+01 0.21115565415E+01 0.21059992252E+01
 0.21353146790E+01 0.21389465019E+01 0.21467515065E+01 0.21515566439E+01 0.21471426263E+01
 0.21329224164E+01 0.21147045867E+01 0.21005285025E+01 0.20946747368E+01 0.20949953407E+01
 0.20960372188E+01 0.20949953407E+01 0.20946747368E+01 0.21005285025E+01 0.21147045867E+01
 0.21329224164E+01 0.21471426263E+01 0.21515566439E+01 0.21467515065E+01 0.21389465019E+01
 0.21255295293E+01 0.21356964080E+01 0.21588923320E+01 0.21783359244E+01 0.21795592406E+01
 0.21604120943E+01 0.21318973357E+01 0.21092576740E+01 0.21005285025E+01 0.21020029148E+01
 0.21041256801E+01 0.21020029148E+01 0.21005285025E+01 0.21092576740E+01 0.21318973357E+01
 0.21604120943E+01 0.21795592406E+01 0.21783359244E+01 0.21588923320E+01 0.21356964080E+01
 0.19856995951E+01 0.20112010378E+01 0.20740951899E+01 0.21419623186E+01 0.21833746810E+01
 0.21860601264E+01 0.21612533196E+01 0.21318973357E+01 0.21147045867E+01 0.21107373121E+01
 0.21111611115E+01 0.21107373121E+01 0.21147045867E+01 0.21318973357E+01 0.21612533196E+01
 0.21860601264E+01 0.21833746810E+01 0.21419623186E+01 0.20740951899E+01 0.20112010378E+01
 0.16563260071E+01 0.17044503182E+01 0.18303931166E+01 0.19849370580E+01 0.21126601446E+01
 0.21793717538E+01 0.21860601264E+01 0.21604120943E+01 0.21329224164E+01 0.21179086237E+01
 0.21139644885E+01 0.21179086237E+01 0.21329224164E+01 0.21604120943E+01 0.21860601264E+01
 0.21793717538E+01 0.21126601446E+01 0.19849370580E+01 0.18303931166E+01 0.17044503182E+01
 0.12204313590E+01 0.12798676782E+01 0.14506889743E+01 0.16971063563E+01 0.19427404196E+01
 0.21126601446E+01 0.21833746810E+01 0.21795592406E+01 0.21471426263E+01 0.21203979759E+01
 0.21111611115E+01 0.21203979759E+01 0.21471426263E+01 0.21795592406E+01 0.21833746810E+01
 0.21126601446E+01 0.19427404196E+01 0.16971063563E+01 0.14506889743E+01 0.12798676782E+01
 0.91102910409E+00 0.95083087329E+00 0.10926329489E+01 0.13587282633E+01 0.16971063563E+01
 0.19849370580E+01 0.21419623186E+01 0.21783359244E+01 0.21515566439E+01 0.21175417982E+01
 0.21041256801E+01 0.21175417982E+01 0.21515566439E+01 0.21783359244E+01 0.21419623186E+01
 0.19849370580E+01 0.16971063563E+01 0.13587282633E+01 0.10926329489E+01 0.95083087329E+00
 0.87115617994E+00 0.86162030778E+00 0.89819720612E+00 0.10926329489E+01 0.14506889743E+01
 0.18303931166E+01 0.20740951899E+01 0.21588923320E+01 0.21467515065E+01 0.21115565415E+01
 0.20960372188E+01 0.21115565415E+01 0.21467515065E+01 0.21588923320E+01 0.20740951899E+01
 0.18303931166E+01 0.14506889743E+01 0.10926329489E+01 0.89819720612E+00 0.86162030778E+00
 0.10085054340E+01 0.94582591195E+00 0.86162030778E+00 0.95083087329E+00 0.12798676782E+01
 0.17044503182E+01 0.20112010378E+01 0.21356964080E+01 0.21389465019E+01 0.21059992252E+01
 0.20899852449E+01 0.21059992252E+01 0.21389465019E+01 0.21356964080E+01 0.20112010378E+01
 0.17044503182E+01 0.12798676782E+01 0.95083087329E+00 0.86162030778E+00 0.94582591195E+00
 0.10085054340E+01 0.94582591195E+00 0.86162030778E+00 0.95083087329E+00 0.12798676782E+01
 0.17044503182E+01 0.20112010378E+01 0.21356964080E+01 0.21389465019E+01 0.21059992252E+01
 0.20899852449E+01 0.21059992252E+01 0.21389465019E+01 0.21356964080E+01 0.20112010378E+01
 0.17044503182E+01 0.12798676782E+01 0.95083087329E+00 0.86162030778E+00 0.94582591195E+00
 0.94582591195E+00 0.90325569575E+00 0.86515751048E+00 0.99571692822E+00 0.13385052874E+01
 0.17492366772E+01 0.20337568511E+01 0.21438162511E+01 0.21411641692E+01 0.21070829512E+01
 0.20911203903E+01 0.21070829512E+01 0.21411641692E+01 0.21438162511E+01 0.20337568511E+01
 0.17492366772E+01 0.13385052874E+01 0.99571692822E+00 0.86515751048E+00 0.90325569575E+00
 0.86162030778E+00 0.86515751048E+00 0.93038810331E+00 0.11467354848E+01 0.15048388700E+01
 0.18656172158E+01 0.20891929806E+01 0.21621785231E+01 0.21458638206E+01 0.21102854178E+01
 0.20949953407E+01 0.21102854178E+01 0.21458638206E+01 0.21621785231E+01 0.20891929806E+01
 0.18656172158E+01 0.15048388700E+01 0.11467354848E+01 0.93038810331E+00 0.86515751048E+00
 0.95083087329E+00 0.99571692822E+00 0.11467354848E+01 0.14141342617E+01 0.17397289451E+01
 0.20071350471E+01 0.21484561900E+01 0.21770173241E+01 0.21484212468E+01 0.21149743543E+01
 0.21020029148E+01 0.21149743543E+01 0.21484212468E+01 0.21770173241E+01 0.21484561900E+01
 0.20071350471E+01 0.17397289451E+01 0.14141342617E+01 0.11467354848E+01 0.99571692822E+00
 0.12798676782E+01 0.13385052874E+01 0.15048388700E+01 0.17397289451E+01 0.19680418533E+01
 0.21224543953E+01 0.21836266121E+01 0.21765667540E+01 0.21446928752E+01 0.21193587463E+01
 0.21107373121E+01 0.21193587463E+01 0.21446928752E+01 0.21765667540E+01 0.21836266121E+01
 0.21224543953E+01 0.19680418533E+01 0.17397289451E+01 0.15048388700E+01 0.13385052874E+01
 0.17044503182E+01 0.17492366772E+01 0.18656172158E+01 0.20071350471E+01 0.21224543953E+01
 0.21807655595E+01 0.21842839617E+01 0.21594404515E+01 0.21342803717E+01 0.21211729423E+01
 0.21179086237E+01 0.21211729423E+01 0.21342803717E+01 0.21594404515E+01 0.21842839617E+01
 0.21807655595E+01 0.21224543953E+01 0.20071350471E+01 0.18656172158E+01 0.17492366772E+01
 0.20112010378E+01 0.20337568511E+01 0.20891929806E+01 0.21484561900E+01 0.21836266121E+01
 0.21842839617E+01 0.21612008603E+01 0.21353299087E+01 0.21213656978E+01 0.21193587463E+01
 0.21203979759E+01 0.21193587463E+01 0.21213656978E+01 0.21353299087E+01 0.21612008603E+01
 0.21842839617E+01 0.21836266121E+01 0.21484561900E+01 0.20891929806E+01 0.20337568511E+01
 0.21356964080E+01 0.21438162511E+01 0.21621785231E+01 0.21770173241E+01 0.21765667540E+01
 0.21594404515E+01 0.21353299087E+01 0.21173102806E+01 0.21118643728E+01 0.21149743543E+01
 0.21175417982E+01 0.21149743543E+01 0.21118643728E+01 0.21173102806E+01 0.21353299087E+01
 0.21594404515E+01 0.21765667540E+01 0.21770173241E+01 0.21621785231E+01 0.21438162511E+01
 0.21389465019E+01 0.21411641692E+01 0.21458638206E+01 0.21484212468E+01 0.21446928752E+01
 0.21342803717E+01 0.21213656978E+01 0.21118643728E+01 0.21088416630E+01 0.21102854178E+01
 0.21115565415E+01 0.21102854178E+01 0.21088416630E+01 0.21118643728E+01 0.21213656978E+01
 0.21342803717E+01 0.21446928752E+01 0.21484212468E+01 0.21458638206E+01 0.21411641692E+01
 0.21059992252E+01 0.21070829512E+01 0.21102854178E+01 0.21149743543E+01 0.21193587463E+01
 0.21211729423E+01 0.21193587463E+01 0.21149743543E+01 0.21102854178E+01 0.21070829512E+01
 0.21059992252E+01 0.21070829512E+01 0.21102854178E+01 0.21149743543E+01 0.21193587463E+01
 0.21211729423E+01 0.21193587463E+01 0.21149743543E+01 0.21102854178E+01 0.21070829512E+01
 0.20899852449E+01 0.20911203903E+01 0.20949953407E+01 0.21020029148E+01 0.21107373121E+01
 0.21179086237E+01 0.21203979759E+01 0.21175417982E+01 0.21115565415E+01 0.21059992252E+01
 0.21037863191E+01 0.21059992252E+01 0.21115565415E+01 0.21175417982E+01 0.21203979759E+01
 0.21179086237E+01 0.21107373121E+01 0.21020029148E+01 0.20949953407E+01 0.20911203903E+01
 0.21059992252E+01 0.21070829512E+01 0.21102854178E+01 0.21149743543E+01 0.21193587463E+01
 0.21211729423E+01 0.21193587463E+01 0.21149743543E+01 0.21102854178E+01 0.21070829512E+01
 0.21059992252E+01 0.21070829512E+01 0.21102854178E+01 0.21149743543E+01 0.21193587463E+01
 0.21211729423E+01 0.21193587463E+01 0.21149743543E+01 0.21102854178E+01 0.21070829512E+01
 0.21389465019E+01 0.21411641692E+01 0.21458638206E+01 0.21484212468E+01 0.21446928752E+01
 0.21342803717E+01 0.21213656978E+01 0.21118643728E+01 0.21088416630E+01 0.21102854178E+01
 0.21115565415E+01 0.21102854178E+01 0.21088416630E+01 0.21118643728E+01 0.21213656978E+01
 0.21342803717E+01 0.21446928752E+01 0.21484212468E+01 0.21458638206E+01 0.21411641692E+01
 0.21356964080E+01 0.21438162511E+01 0.21621785231E+01 0.21770173241E+01 0.21765667540E+01
 0.21594404515E+01 0.21353299087E+01 0.21173102806E+01 0.21118643728E+01 0.21149743543E+01
 0.21175417982E+01 0.21149743543E+01 0.21118643728E+01 0.21173102806E+01 0.21353299087E+01
 0.21594404515E+01 0.21765667540E+01 0.21770173241E+01 0.21621785231E+01 0.21438162511E+01
 0.20112010378E+01 0.20337568511E+01 0.20891929806E+01 0.21484561900E+01 0.21836266121E+01
 0.21842839617E+01 0.21612008603E+01 0.21353299087E+01 0.21213656978E+01 0.21193587463E+01
 0.21203979759E+01 0.21193587463E+01 0.21213656978E+01 0.21353299087E+01 0.21612008603E+01
 0.21842839617E+01 0.21836266121E+01 0.21484561900E+01 0.20891929806E+01 0.20337568511E+01
 0.17044503182E+01 0.17492366772E+01 0.18656172158E+01 0.20071350471E+01 0.21224543953E+01
 0.21807655595E+01 0.21842839617E+01 0.21594404515E+01 0.21342803717E+01 0.21211729423E+01
 0.21179086237E+01 0.21211729423E+01 0.21342803717E+01 0.21594404515E+01 0.21842839617E+01
 0.21807655595E+01 0.21224543953E+01 0.20071350471E+01 0.18656172158E+01 0.17492366772E+01
 0.12798676782E+01 0.13385052874E+01 0.15048388700E+01 0.17397289451E+01 0.19680418533E+01
 0.21224543953E+01 0.21836266121E+01 0.21765667540E+01 0.21446928752E+01 0.21193587463E+01
 0.21107373121E+01 0.21193587463E+01 0.21446928752E+01 0.21765667540E+01 0.21836266121E+01
 0.21224543953E+01 0.19680418533E+01 0.17397289451E+01 0.15048388700E+01 0.13385052874E+01
 0.95083087329E+00 0.99571692822E+00 0.11467354848E+01 0.14141342617E+01 0.17397289451E+01
 0.20071350471E+01 0.21484561900E+01 0.21770173241E+01 0.21484212468E+01 0.21149743543E+01
 0.21020029148E+01 0.21149743543E+01 0.21484212468E+01 0.21770173241E+01 0.21484561900E+01
 0.20071350471E+01 0.17397289451E+01 0.14141342617E+01 0.11467354848E+01 0.99571692822E+00
 0.86162030778E+00 0.86515751048E+00 0.93038810331E+00 0.11467354848E+01 0.15048388700E+01
 0.18656172158E+01 0.20891929806E+01 0.21621785231E+01 0.21458638206E+01 0.21102854178E+01
 0.20949953407E+01 0.21102854178E+01 0.21458638206E+01 0.21621785231E+01 0.20891929806E+01
 0.18656172158E+01 0.15048388700E+01 0.11467354848E+01 0.93038810331E+00 0.86515751048E+00
 0.94582591195E+00 0.90325569575E+00 0.86515751048E+00 0.99571692822E+00 0.13385052874E+01
 0.17492366772E+01 0.20337568511E+01 0.21438162511E+01 0.21411641692E+01 0.21070829512E+01
 0.20911203903E+01 0.21070829512E+01 0.21411641692E+01 0.21438162511E+01 0.20337568511E+01
 0.17492366772E+01 0.13385052874E+01 0.99571692822E+00 0.86515751048E+00 0.90325569575E+00
 0.87115617994E+00 0.86162030778E+00 0.89819720612E+00 0.10926329489E+01 0.14506889743E+01
 0.18303931166E+01 0.20740951899E+01 0.21588923320E+01 0.21467515065E+01 0.21115565415E+01
 0.20960372188E+01 0.21115565415E+01 0.21467515065E+01 0.21588923320E+01 0.20740951899E+01
 0.18303931166E+01 0.14506889743E+01 0.10926329489E+01 0.89819720612E+00 0.86162030778E+00
 0.86162030778E+00 0.86515751048E+00 0.93038810331E+00 0.11467354848E+01 0.15048388700E+01
 0.18656172158E+01 0.20891929806E+01 0.21621785231E+01 0.21458638206E+01 0.21102854178E+01
 0.20949953407E+01 0.21102854178E+01 0.21458638206E+01 0.21621785231E+01 0.20891929806E+01
 0.18656172158E+01 0.15048388700E+01 0.11467354848E+01 0.93038810331E+00 0.86515751048E+00
 0.89819720612E+00 0.93038810331E+00 0.10560286041E+01 0.13113959245E+01 0.16535232132E+01
 0.19558994235E+01 0.21259193469E+01 0.21693056631E+01 0.21439730465E+01 0.21088416630E+01
 0.20946747368E+01 0.21088416630E+01 0.21439730465E+01 0.21693056631E+01 0.21259193469E+01
 0.19558994235E+01 0.16535232132E+01 0.13113959245E+01 0.10560286041E+01 0.93038810331E+00
 0.10926329489E+01 0.11467354848E+01 0.13113959245E+01 0.15696901708E+01 0.18518549883E+01
 0.20631876764E+01 0.21640684273E+01 0.21739817094E+01 0.21425023572E+01 0.21118643728E+01
 0.21005285025E+01 0.21118643728E+01 0.21425023572E+01 0.21739817094E+01 0.21640684273E+01
 0.20631876764E+01 0.18518549883E+01 0.15696901708E+01 0.13113959245E+01 0.11467354848E+01
 0.14506889743E+01 0.15048388700E+01 0.16535232132E+01 0.18518549883E+01 0.20325980419E+01
 0.21469072050E+01 0.21846921479E+01 0.21709522886E+01 0.21420135058E+01 0.21213656978E+01
 0.21147045867E+01 0.21213656978E+01 0.21420135058E+01 0.21709522886E+01 0.21846921479E+01
 0.21469072050E+01 0.20325980419E+01 0.18518549883E+01 0.16535232132E+01 0.15048388700E+01
 0.18303931166E+01 0.18656172158E+01 0.19558994235E+01 0.20631876764E+01 0.21469072050E+01
 0.21848333532E+01 0.21817353874E+01 0.21602734210E+01 0.21419922557E+01 0.21342803717E+01
 0.21329224164E+01 0.21342803717E+01 0.21419922557E+01 0.21602734210E+01 0.21817353874E+01
 0.21848333532E+01 0.21469072050E+01 0.20631876764E+01 0.19558994235E+01 0.18656172158E+01
 0.20740951899E+01 0.20891929806E+01 0.21259193469E+01 0.21640684273E+01 0.21846921479E+01
 0.21817353874E+01 0.21642625886E+01 0.21478168267E+01 0.21420135058E+01 0.21446928752E+01
 0.21471426263E+01 0.21446928752E+01 0.21420135058E+01 0.21478168267E+01 0.21642625886E+01
 0.21817353874E+01 0.21846921479E+01 0.21640684273E+01 0.21259193469E+01 0.20891929806E+01
 0.21588923320E+01 0.21621785231E+01 0.21693056631E+01 0.21739817094E+01 0.21709522886E+01
 0.21602734210E+01 0.21478168267E+01 0.21409467231E+01 0.21425023572E+01 0.21484212468E+01
 0.21515566439E+01 0.21484212468E+01 0.21425023572E+01 0.21409467231E+01 0.21478168267E+01
 0.21602734210E+01 0.21709522886E+01 0.21739817094E+01 0.21693056631E+01 0.21621785231E+01
 0.21467515065E+01 0.21458638206E+01 0.21439730465E+01 0.21425023572E+01 0.21420135058E+01
 0.21419922557E+01 0.21420135058E+01 0.21425023572E+01 0.21439730465E+01 0.21458638206E+01
 0.21467515065E+01 0.21458638206E+01 0.21439730465E+01 0.21425023572E+01 0.21420135058E+01
 0.21419922557E+01 0.21420135058E+01 0.21425023572E+01 0.21439730465E+01 0.21458638206E+01
 0.21115565415E+01 0.21102854178E+01 0.21088416630E+01 0.21118643728E+01 0.21213656978E+01
 0.21342803717E+01 0.21446928752E+01 0.21484212468E+01 0.21458638206E+01 0.21411641692E+01
 0.21389465019E+01 0.21411641692E+01 0.21458638206E+01 0.21484212468E+01 0.21446928752E+01
 0.21342803717E+01 0.21213656978E+01 0.21118643728E+01 0.21088416630E+01 0.21102854178E+01
 0.20960372188E+01 0.20949953407E+01 0.20946747368E+01 0.21005285025E+01 0.21147045867E+01
 0.21329224164E+01 0.21471426263E+01 0.21515566439E+01 0.21467515065E+01 0.21389465019E+01
 0.21353146790E+01 0.21389465019E+01 0.21467515065E+01 0.21515566439E+01 0.21471426263E+01
 0.21329224164E+01 0.21147045867E+01 0.21005285025E+01 0.20946747368E+01 0.20949953407E+01
 0.21115565415E+01 0.21102854178E+01 0.21088416630E+01 0.21118643728E+01 0.21213656978E+01
 0.21342803717E+01 0.21446928752E+01 0.21484212468E+01 0.21458638206E+01 0.21411641692E+01
 0.21389465019E+01 0.21411641692E+01 0.21458638206E+01 0.21484212468E+01 0.21446928752E+01
 0.21342803717E+01 0.21213656978E+01 0.21118643728E+01 0.21088416630E+01 0.21102854178E+01
 0.21467515065E+01 0.21458638206E+01 0.21439730465E+01 0.21425023572E+01 0.21420135058E+01
 0.21419922557E+01 0.21420135058E+01 0.21425023572E+01 0.21439730465E+01 0.21458638206E+01
 0.21467515065E+01 0.21458638206E+01 0.21439730465E+01 0.21425023572E+01 0.21420135058E+01
 0.21419922557E+01 0.21420135058E+01 0.21425023572E+01 0.21439730465E+01 0.21458638206E+01
 0.21588923320E+01 0.21621785231E+01 0.21693056631E+01 0.21739817094E+01 0.21709522886E+01
 0.21602734210E+01 0.21478168267E+01 0.21409467231E+01 0.21425023572E+01 0.21484212468E+01
 0.21515566439E+01 0.21484212468E+01 0.21425023572E+01 0.21409467231E+01 0.21478168267E+01
 0.21602734210E+01 0.21709522886E+01 0.21739817094E+01 0.21693056631E+01 0.21621785231E+01
 0.20740951899E+01 0.20891929806E+01 0.21259193469E+01 0.21640684273E+01 0.21846921479E+01
 0.21817353874E+01 0.21642625886E+01 0.21478168267E+01 0.21420135058E+01 0.21446928752E+01
 0.21471426263E+01 0.21446928752E+01 0.21420135058E+01 0.21478168267E+01 0.21642625886E+01
 0.21817353874E+01 0.21846921479E+01 0.21640684273E+01 0.21259193469E+01 0.20891929806E+01
 0.18303931166E+01 0.18656172158E+01 0.19558994235E+01 0.20631876764E+01 0.21469072050E+01
 0.21848333532E+01 0.21817353874E+01 0.21602734210E+01 0.21419922557E+01 0.21342803717E+01
 0.21329224164E+01 0.21342803717E+01 0.21419922557E+01 0.21602734210E+01 0.21817353874E+01
 0.21848333532E+01 0.21469072050E+01 0.20631876764E+01 0.19558994235E+01 0.18656172158E+01
 0.14506889743E+01 0.15048388700E+01 0.16535232132E+01 0.18518549883E+01 0.20325980419E+01
 0.21469072050E+01 0.21846921479E+01 0.21709522886E+01 0.21420135058E+01 0.21213656978E+01
 0.21147045867E+01 0.21213656978E+01 0.21420135058E+01 0.21709522886E+01 0.21846921479E+01
 0.21469072050E+01 0.20325980419E+01 0.18518549883E+01 0.16535232132E+01 0.15048388700E+01
 0.10926329489E+01 0.11467354848E+01 0.13113959245E+01 0.15696901708E+01 0.18518549883E+01
 0.20631876764E+01 0.21640684273E+01 0.21739817094E+01 0.21425023572E+01 0.21118643728E+01
 0.21005285025E+01 0.21118643728E+01 0.21425023572E+01 0.21739817094E+01 0.21640684273E+01
 0.20631876764E+01 0.18518549883E+01 0.15696901708E+01 0.13113959245E+01 0.11467354848E+01
 0.89819720612E+00 0.93038810331E+00 0.10560286041E+01 0.13113959245E+01 0.16535232132E+01
 0.19558994235E+01 0.21259193469E+01 0.21693056631E+01 0.21439730465E+01 0.21088416630E+01
 0.20946747368E+01 0.21088416630E+01 0.21439730465E+01 0.21693056631E+01 0.21259193469E+01
 0.19558994235E+01 0.16535232132E+01 0.13113959245E+01 0.10560286041E+01 0.93038810331E+00
 0.86162030778E+00 0.86515751048E+00 0.93038810331E+00 0.11467354848E+01 0.15048388700E+01
 0.18656172158E+01 0.20891929806E+01 0.21621785231E+01 0.21458638206E+01 0.21102854178E+01
 0.20949953407E+01 0.21102854178E+01 0.21458638206E+01 0.21621785231E+01 0.20891929806E+01
 0.18656172158E+01 0.15048388700E+01 0.11467354848E+01 0.93038810331E+00 0.86515751048E+00
 0.91102910409E+00 0.95083087329E+00 0.10926329489E+01 0.13587282633E+01 0.16971063563E+01
 0.19849370580E+01 0.21419623186E+01 0.21783359244E+01 0.21515566439E+01 0.21175417982E+01
 0.21041256801E+01 0.21175417982E+01 0.21515566439E+01 0.21783359244E+01 0.21419623186E+01
 0.19849370580E+01 0.16971063563E+01 0.13587282633E+01 0.10926329489E+01 0.95083087329E+00
 0.95083087329E+00 0.99571692822E+00 0.11467354848E+01 0.14141342617E+01 0.17397289451E+01
 0.20071350471E+01 0.21484561900E+01 0.21770173241E+01 0.21484212468E+01 0.21149743543E+01
 0.21020029148E+01 0.21149743543E+01 0.21484212468E+01 0.21770173241E+01 0.21484561900E+01
 0.20071350471E+01 0.17397289451E+01 0.14141342617E+01 0.11467354848E+01 0.99571692822E+00
 0.10926329489E+01 0.11467354848E+01 0.13113959245E+01 0.15696901708E+01 0.18518549883E+01
 0.20631876764E+01 0.21640684273E+01 0.21739817094E+01 0.21425023572E+01 0.21118643728E+01
 0.21005285025E+01 0.21118643728E+01 0.21425023572E+01 0.21739817094E+01 0.21640684273E+01
 0.20631876764E+01 0.18518549883E+01 0.15696901708E+01 0.13113959245E+01 0.11467354848E+01
 0.13587282633E+01 0.14141342617E+01 0.15696901708E+01 0.17855095351E+01 0.19909274799E+01
 0.21275148967E+01 0.21796658732E+01 0.21710625340E+01 0.21409467231E+01 0.21173102806E+01
 0.21092576740E+01 0.21173102806E+01 0.21409467231E+01 0.21710625340E+01 0.21796658732E+01
 0.21275148967E+01 0.19909274799E+01 0.17855095351E+01 0.15696901708E+01 0.14141342617E+01
 0.16971063563E+01 0.17397289451E+01 0.18518549883E+01 0.19909274799E+01 0.21085648939E+01
 0.21740973590E+01 0.21868211653E+01 0.21693748237E+01 0.21478168267E+01 0.21353299087E+01
 0.21318973357E+01 0.21353299087E+01 0.21478168267E+01 0.21693748237E+01 0.21868211653E+01
 0.21740973590E+01 0.21085648939E+01 0.19909274799E+01 0.18518549883E+01 0.17397289451E+01
 0.19849370580E+01 0.20071350471E+01 0.20631876764E+01 0.21275148967E+01 0.21740973590E+01
 0.21906989485E+01 0.21834455854E+01 0.21688892743E+01 0.21602734210E+01 0.21594404515E+01
 0.21604120943E+01 0.21594404515E+01 0.21602734210E+01 0.21688892743E+01 0.21834455854E+01
 0.21906989485E+01 0.21740973590E+01 0.21275148967E+01 0.20631876764E+01 0.20071350471E+01
 0.21419623186E+01 0.21484561900E+01 0.21640684273E+01 0.21796658732E+01 0.21868211653E+01
 0.21834455854E+01 0.21749065655E+01 0.21693748237E+01 0.21709522886E+01 0.21765667540E+01
 0.21795592406E+01 0.21765667540E+01 0.21709522886E+01 0.21693748237E+01 0.21749065655E+01
 0.21834455854E+01 0.21868211653E+01 0.21796658732E+01 0.21640684273E+01 0.21484561900E+01
 0.21783359244E+01 0.21770173241E+01 0.21739817094E+01 0.21710625340E+01 0.21693748237E+01
 0.21688892743E+01 0.21693748237E+01 0.21710625340E+01 0.21739817094E+01 0.21770173241E+01
 0.21783359244E+01 0.21770173241E+01 0.21739817094E+01 0.21710625340E+01 0.21693748237E+01
 0.21688892743E+01 0.21693748237E+01 0.21710625340E+01 0.21739817094E+01 0.21770173241E+01
 0.21515566439E+01 0.21484212468E+01 0.21425023572E+01 0.21409467231E+01 0.21478168267E+01
 0.21602734210E+01 0.21709522886E+01 0.21739817094E+01 0.21693056631E+01 0.21621785231E+01
 0.21588923320E+01 0.21621785231E+01 0.21693056631E+01 0.21739817094E+01 0.21709522886E+01
 0.21602734210E+01 0.21478168267E+01 0.21409467231E+01 0.21425023572E+01 0.21484212468E+01
 0.21175417982E+01 0.21149743543E+01 0.21118643728E+01 0.21173102806E+01 0.21353299087E+01
 0.21594404515E+01 0.21765667540E+01 0.21770173241E+01 0.21621785231E+01 0.21438162511E+01
 0.21356964080E+01 0.21438162511E+01 0.21621785231E+01 0.21770173241E+01 0.21765667540E+01
 0.21594404515E+01 0.21353299087E+01 0.21173102806E+01 0.21118643728E+01 0.21149743543E+01
 0.21041256801E+01 0.21020029148E+01 0.21005285025E+01 0.21092576740E+01 0.21318973357E+01
 0.21604120943E+01 0.21795592406E+01 0.21783359244E+01 0.21588923320E+01 0.21356964080E+01
 0.21255295293E+01 0.21356964080E+01 0.21588923320E+01 0.21783359244E+01 0.21795592406E+01
 0.21604120943E+01 0.21318973357E+01 0.21092576740E+01 0.21005285025E+01 0.21020029148E+01
 0.21175417982E+01 0.21149743543E+01 0.21118643728E+01 0.21173102806E+01 0.21353299087E+01
 0.21594404515E+01 0.21765667540E+01 0.21770173241E+01 0.21621785231E+01 0.21438162511E+01
 0.21356964080E+01 0.21438162511E+01 0.21621785231E+01 0.21770173241E+01 0.21765667540E+01
 0.21594404515E+01 0.21353299087E+01 0.21173102806E+01 0.21118643728E+01 0.21149743543E+01
 0.21515566439E+01 0.21484212468E+01 0.21425023572E+01 0.21409467231E+01 0.21478168267E+01
 0.21602734210E+01 0.21709522886E+01 0.21739817094E+01 0.21693056631E+01 0.21621785231E+01
 0.21588923320E+01 0.21621785231E+01 0.21693056631E+01 0.21739817094E+01 0.21709522886E+01
 0.21602734210E+01 0.21478168267E+01 0.21409467231E+01 0.21425023572E+01 0.21484212468E+01
 0.21783359244E+01 0.21770173241E+01 0.21739817094E+01 0.21710625340E+01 0.21693748237E+01
 0.21688892743E+01 0.21693748237E+01 0.21710625340E+01 0.21739817094E+01 0.21770173241E+01
 0.21783359244E+01 0.21770173241E+01 0.21739817094E+01 0.21710625340E+01 0.21693748237E+01
 0.21688892743E+01 0.21693748237E+01 0.21710625340E+01 0.21739817094E+01 0.21770173241E+01
 0.21419623186E+01 0.21484561900E+01 0.21640684273E+01 0.21796658732E+01 0.21868211653E+01
 0.21834455854E+01 0.21749065655E+01 0.21693748237E+01 0.21709522886E+01 0.21765667540E+01
 0.21795592406E+01 0.21765667540E+01 0.21709522886E+01 0.21693748237E+01 0.21749065655E+01
 0.21834455854E+01 0.21868211653E+01 0.21796658732E+01 0.21640684273E+01 0.21484561900E+01
 0.19849370580E+01 0.20071350471E+01 0.20631876764E+01 0.21275148967E+01 0.21740973590E+01
 0.21906989485E+01 0.21834455854E+01 0.21688892743E+01 0.21602734210E+01 0.21594404515E+01
 0.21604120943E+01 0.21594404515E+01 0.21602734210E+01 0.21688892743E+01 0.21834455854E+01
 0.21906989485E+01 0.21740973590E+01 0.21275148967E+01 0.20631876764E+01 0.20071350471E+01
 0.16971063563E+01 0.17397289451E+01 0.18518549883E+01 0.19909274799E+01 0.21085648939E+01
 0.21740973590E+01 0.21868211653E+01 0.21693748237E+01 0.21478168267E+01 0.21353299087E+01
 0.21318973357E+01 0.21353299087E+01 0.21478168267E+01 0.21693748237E+01 0.21868211653E+01
 0.21740973590E+01 0.21085648939E+01 0.19909274799E+01 0.18518549883E+01 0.17397289451E+01
 0.13587282633E+01 0.14141342617E+01 0.15696901708E+01 0.17855095351E+01 0.19909274799E+01
 0.21275148967E+01 0.21796658732E+01 0.21710625340E+01 0.21409467231E+01 0.21173102806E+01
 0.21092576740E+01 0.21173102806E+01 0.21409467231E+01 0.21710625340E+01 0.21796658732E+01
 0.21275148967E+01 0.19909274799E+01 0.17855095351E+01 0.15696901708E+01 0.14141342617E+01
 0.10926329489E+01 0.11467354848E+01 0.13113959245E+01 0.15696901708E+01 0.18518549883E+01
 0.20631876764E+01 0.21640684273E+01 0.21739817094E+01 0.21425023572E+01 0.21118643728E+01
 0.21005285025E+01 0.21118643728E+01 0.21425023572E+01 0.21739817094E+01 0.21640684273E+01
 0.20631876764E+01 0.18518549883E+01 0.15696901708E+01 0.13113959245E+01 0.11467354848E+01
 0.95083087329E+00 0.99571692822E+00 0.11467354848E+01 0.14141342617E+01 0.17397289451E+01
 0.20071350471E+01 0.21484561900E+01 0.21770173241E+01 0.21484212468E+01 0.21149743543E+01
 0.21020029148E+01 0.21149743543E+01 0.21484212468E+01 0.21770173241E+01 0.21484561900E+01
 0.20071350471E+01 0.17397289451E+01 0.14141342617E+01 0.11467354848E+01 0.99571692822E+00
 0.12204313590E+01 0.12798676782E+01 0.14506889743E+01 0.16971063563E+01 0.19427404196E+01
 0.21126601446E+01 0.21833746810E+01 0.21795592406E+01 0.21471426263E+01 0.21203979759E+01
 0.21111611115E+01 0.21203979759E+01 0.21471426263E+01 0.21795592406E+01 0.21833746810E+01
 0.21126601446E+01 0.19427404196E+01 0.16971063563E+01 0.14506889743E+01 0.12798676782E+01
 0.12798676782E+01 0.13385052874E+01 0.15048388700E+01 0.17397289451E+01 0.19680418533E+01
 0.21224543953E+01 0.21836266121E+01 0.21765667540E+01 0.21446928752E+01 0.21193587463E+01