<?xml version="1.0" encoding="ISO-8859-1"?>
<modeling>
 <generator>
  <i name="program" type="string">vasp </i>
  <i name="version" type="string">5.3.2  </i>
  <i name="subversion" type="string">13Sep12 (build Jun 30 2016 14:08:18) complex                          parallel </i>
  <i name="platform" type="string">LinuxIFC </i>
  <i name="date" type="string">2017 10 23 </i>
  <i name="time" type="string">18:49:44 </i>
 </generator>
 <incar>
  <i type="string" name="SYSTEM"> bcc Na</i>
  <i type="string" name="PREC">normal</i>
  <i name="EDIFF">      0.00000100</i>
  <v name="RWIGS">      1.40200000</v>
 </incar>
 <kpoints>
  <generation param="Monkhorst-Pack">
   <v type="int" name="divisions">      10       10       10 </v>
   <v name="usershift">      0.00000000       0.00000000       0.00000000 </v>
   <v name="genvec1">      0.10000000       0.00000000       0.00000000 </v>
   <v name="genvec2">      0.00000000       0.10000000       0.00000000 </v>
   <v name="genvec3">      0.00000000       0.00000000       0.10000000 </v>
   <v name="shift">      0.50000000       0.50000000       0.50000000 </v>
  </generation>
  <varray name="kpointlist" >
   <v>       0.05000000       0.05000000       0.05000000 </v>
   <v>       0.15000000       0.05000000       0.05000000 </v>
   <v>       0.25000000       0.05000000       0.05000000 </v>
   <v>       0.35000000       0.05000000       0.05000000 </v>
   <v>       0.45000000       0.05000000       0.05000000 </v>
   <v>       0.15000000       0.15000000       0.05000000 </v>
   <v>       0.25000000       0.15000000       0.05000000 </v>
   <v>       0.35000000       0.15000000       0.05000000 </v>
   <v>       0.45000000       0.15000000       0.05000000 </v>
   <v>       0.25000000       0.25000000       0.05000000 </v>
   <v>       0.35000000       0.25000000       0.05000000 </v>
   <v>       0.45000000       0.25000000       0.05000000 </v>
   <v>       0.35000000       0.35000000       0.05000000 </v>
   <v>       0.45000000       0.35000000       0.05000000 </v>
   <v>       0.45000000       0.45000000       0.05000000 </v>
   <v>       0.15000000       0.15000000       0.15000000 </v>
   <v>       0.25000000       0.15000000       0.15000000 </v>
   <v>       0.35000000       0.15000000       0.15000000 </v>
   <v>       0.45000000       0.15000000       0.15000000 </v>
   <v>       0.25000000       0.25000000       0.15000000 </v>
   <v>       0.35000000       0.25000000       0.15000000 </v>
   <v>       0.45000000       0.25000000       0.15000000 </v>
   <v>       0.35000000       0.35000000       0.15000000 </v>
   <v>       0.45000000       0.35000000       0.15000000 </v>
   <v>       0.45000000       0.45000000       0.15000000 </v>
   <v>       0.25000000       0.25000000       0.25000000 </v>
   <v>       0.35000000       0.25000000       0.25000000 </v>
   <v>       0.45000000       0.25000000       0.25000000 </v>
   <v>       0.35000000       0.35000000       0.25000000 </v>
   <v>       0.45000000       0.35000000       0.25000000 </v>
   <v>       0.45000000       0.45000000       0.25000000 </v>
   <v>       0.35000000       0.35000000       0.35000000 </v>
   <v>       0.45000000       0.35000000       0.35000000 </v>
   <v>       0.45000000       0.45000000       0.35000000 </v>
   <v>       0.45000000       0.45000000       0.45000000 </v>
  </varray>
  <varray name="weights" >
   <v>       0.00800000 </v>
   <v>       0.02400000 </v>
   <v>       0.02400000 </v>
   <v>       0.02400000 </v>
   <v>       0.02400000 </v>
   <v>       0.02400000 </v>
   <v>       0.04800000 </v>
   <v>       0.04800000 </v>
   <v>       0.04800000 </v>
   <v>       0.02400000 </v>
   <v>       0.04800000 </v>
   <v>       0.04800000 </v>
   <v>       0.02400000 </v>
   <v>       0.04800000 </v>
   <v>       0.02400000 </v>
   <v>       0.00800000 </v>
   <v>       0.02400000 </v>
   <v>       0.02400000 </v>
   <v>       0.02400000 </v>
   <v>       0.02400000 </v>
   <v>       0.04800000 </v>
   <v>       0.04800000 </v>
   <v>       0.02400000 </v>
   <v>       0.04800000 </v>
   <v>       0.02400000 </v>
   <v>       0.00800000 </v>
   <v>       0.02400000 </v>
   <v>       0.02400000 </v>
   <v>       0.02400000 </v>
   <v>       0.04800000 </v>
   <v>       0.02400000 </v>
   <v>       0.00800000 </v>
   <v>       0.02400000 </v>
   <v>       0.02400000 </v>
   <v>       0.00800000 </v>
  </varray>
 </kpoints>
 <parameters>
  <separator name="general" >
   <i type="string" name="SYSTEM">bcc Na</i>
   <i type="logical" name="LCOMPAT"> F  </i>
  </separator>
  <separator name="electronic" >
   <i type="string" name="PREC">normal</i>
   <i name="ENMAX">    101.95600000</i>
   <i name="ENAUG">    250.69500000</i>
   <i name="EDIFF">      0.00000100</i>
   <i type="int" name="IALGO">    38</i>
   <i type="int" name="IWAVPR">    10</i>
   <i type="int" name="NBANDS">     6</i>
   <i name="NELECT">      2.00000000</i>
   <i type="int" name="TURBO">     0</i>
   <i type="int" name="IRESTART">     0</i>
   <i type="int" name="NREBOOT">     0</i>
   <i type="int" name="NMIN">     0</i>
   <i name="EREF">      0.00000000</i>
   <separator name="electronic smearing" >
    <i type="int" name="ISMEAR">     1</i>
    <i name="SIGMA">      0.20000000</i>
    <i name="KSPACING">      0.50000000</i>
    <i type="logical" name="KGAMMA"> T  </i>
   </separator>
   <separator name="electronic projectors" >
    <i type="logical" name="LREAL"> F  </i>
    <v name="ROPT">      0.00000000</v>
    <i type="int" name="LMAXPAW">  -100</i>
    <i type="int" name="LMAXMIX">     2</i>
    <i type="logical" name="NLSPLINE"> F  </i>
   </separator>
   <separator name="electronic startup" >
    <i type="int" name="ISTART">     1</i>
    <i type="int" name="ICHARG">     0</i>
    <i type="int" name="INIWAV">     1</i>
   </separator>
   <separator name="electronic spin" >
    <i type="int" name="ISPIN">     1</i>
    <i type="logical" name="LNONCOLLINEAR"> F  </i>
    <v name="MAGMOM">      1.00000000      1.00000000</v>
    <i name="NUPDOWN">     -1.00000000</i>
    <i type="logical" name="LSORBIT"> F  </i>
    <v name="SAXIS">      0.00000000      0.00000000      1.00000000</v>
    <i type="logical" name="LSPIRAL"> F  </i>
    <v name="QSPIRAL">      0.00000000      0.00000000      0.00000000</v>
    <i type="logical" name="LZEROZ"> F  </i>
   </separator>
   <separator name="electronic exchange-correlation" >
    <i type="logical" name="LASPH"> F  </i>
    <i type="logical" name="LMETAGGA"> F  </i>
   </separator>
   <separator name="electronic convergence" >
    <i type="int" name="NELM">    60</i>
    <i type="int" name="NELMDL">     0</i>
    <i type="int" name="NELMIN">     2</i>
    <i name="ENINI">    101.95600000</i>
    <separator name="electronic convergence detail" >
     <i type="logical" name="LDIAG"> T  </i>
     <i type="logical" name="LSUBROT"> T  </i>
     <i name="WEIMIN">      0.00000000</i>
     <i name="EBREAK">      0.00000004</i>
     <i name="DEPER">      0.30000000</i>
     <i type="int" name="NRMM">     4</i>
     <i name="TIME">      0.40000000</i>
    </separator>
   </separator>
   <separator name="electronic mixer" >
    <i name="AMIX">      0.40000000</i>
    <i name="BMIX">      1.00000000</i>
    <i name="AMIN">      0.10000000</i>
    <i name="AMIX_MAG">      1.60000000</i>
    <i name="BMIX_MAG">      1.00000000</i>
    <separator name="electronic mixer details" >
     <i type="int" name="IMIX">     4</i>
     <i type="int" name="MAXMIX">   -45</i>
     <i name="WC">    100.00000000</i>
     <i type="int" name="INIMIX">     1</i>
     <i type="int" name="MIXPRE">     1</i>
     <i type="int" name="MREMOVE">     5</i>
    </separator>
   </separator>
   <separator name="electronic dipolcorrection" >
    <i type="logical" name="LDIPOL"> F  </i>
    <i type="logical" name="LMONO"> F  </i>
    <i type="int" name="IDIPOL">     0</i>
    <i name="EPSILON">      1.00000000</i>
    <v name="DIPOL">   -100.00000000   -100.00000000   -100.00000000</v>
    <i name="EFIELD">      0.00000000</i>
   </separator>
  </separator>
  <separator name="grids" >
   <i type="int" name="NGX">    10</i>
   <i type="int" name="NGY">    10</i>
   <i type="int" name="NGZ">    10</i>
   <i type="int" name="NGXF">    20</i>
   <i type="int" name="NGYF">    20</i>
   <i type="int" name="NGZF">    20</i>
   <i type="logical" name="ADDGRID"> F  </i>
  </separator>
  <separator name="ionic" >
   <i type="int" name="NSW">     0</i>
   <i type="int" name="IBRION">    -1</i>
   <i type="int" name="ISIF">     2</i>
   <i name="PSTRESS">      0.00000000</i>
   <i name="EDIFFG">      0.00001000</i>
   <i type="int" name="NFREE">     0</i>
   <i name="POTIM">      0.50000000</i>
   <i name="SMASS">     -3.00000000</i>
   <i name="SCALEE">      1.00000000</i>
  </separator>
  <separator name="ionic md" >
   <i name="TEBEG">      0.00010000</i>
   <i name="TEEND">      0.00010000</i>
   <i type="int" name="NBLOCK">     1</i>
   <i type="int" name="KBLOCK">     1</i>
   <i type="int" name="NPACO">   256</i>
   <i name="APACO">     16.00000000</i>
  </separator>
  <separator name="symmetry" >
   <i type="int" name="ISYM">     2</i>
   <i name="SYMPREC">      0.00001000</i>
  </separator>
  <separator name="dos" >
   <i type="logical" name="LORBIT"> F  </i>
   <v name="RWIGS">      1.40200000</v>
   <i type="int" name="NEDOS">   301</i>
   <i name="EMIN">     10.00000000</i>
   <i name="EMAX">    -10.00000000</i>
   <i name="EFERMI">      0.00000000</i>
  </separator>
  <separator name="writing" >
   <i type="int" name="NWRITE">     2</i>
   <i type="logical" name="LWAVE"> T  </i>
   <i type="logical" name="LCHARG"> T  </i>
   <i type="logical" name="LPARD"> F  </i>
   <i type="logical" name="LVTOT"> F  </i>
   <i type="logical" name="LVHAR"> F  </i>
   <i type="logical" name="LELF"> F  </i>
   <i type="logical" name="LOPTICS"> F  </i>
   <v name="STM">      0.00000000      0.00000000      0.00000000      0.00000000      0.00000000      0.00000000      0.00000000</v>
  </separator>
  <separator name="performance" >
   <i type="int" name="NPAR">     2</i>
   <i type="int" name="NSIM">     4</i>
   <i type="int" name="NBLK">    -1</i>
   <i type="logical" name="LPLANE"> T  </i>
   <i type="logical" name="LSCALAPACK"> F  </i>
   <i type="logical" name="LSCAAWARE"> F  </i>
   <i type="logical" name="LSCALU"> F  </i>
   <i type="logical" name="LASYNC"> F  </i>
   <i type="logical" name="LORBITALREAL"> F  </i>
  </separator>
  <separator name="miscellaneous" >
   <i type="int" name="IDIOT">     3</i>
   <i type="logical" name="LMUSIC"> F  </i>
   <v name="POMASS">     22.99000000</v>
   <v name="DARWINR">      0.00000000</v>
   <v name="DARWINV">      1.00000000</v>
   <i type="logical" name="LCORR"> T  </i>
  </separator>
  <i type="logical" name="GGA_COMPAT"> T  </i>
  <i type="logical" name="LBERRY"> F  </i>
  <i type="int" name="ICORELEVEL">     0</i>
  <i type="logical" name="LDAU"> F  </i>
  <i type="int" name="I_CONSTRAINED_M">     0</i>
  <separator name="electronic exchange-correlation" >
   <i type="string" name="GGA">--</i>
   <i type="int" name="VOSKOWN">     0</i>
   <i type="logical" name="LHFCALC"> F  </i>
   <i type="string" name="PRECFOCK"></i>
   <i type="logical" name="LSYMGRAD"> F  </i>
   <i type="logical" name="LHFONE"> F  </i>
   <i type="logical" name="LRHFCALC"> F  </i>
   <i type="logical" name="LTHOMAS"> F  </i>
   <i type="logical" name="LMODELHF"> F  </i>
   <i name="ENCUT4O">     -1.00000000</i>
   <i type="int" name="EXXOEP">     0</i>
   <i type="int" name="FOURORBIT">     0</i>
   <i name="AEXX">      0.00000000</i>
   <i name="HFALPHA">      0.00000000</i>
   <i name="MCALPHA">      0.00000000</i>
   <i name="ALDAX">      1.00000000</i>
   <i name="AGGAX">      1.00000000</i>
   <i name="ALDAC">      1.00000000</i>
   <i name="AGGAC">      1.00000000</i>
   <i type="int" name="NKREDX">     1</i>
   <i type="int" name="NKREDY">     1</i>
   <i type="int" name="NKREDZ">     1</i>
   <i type="logical" name="SHIFTRED"> F  </i>
   <i type="logical" name="ODDONLY"> F  </i>
   <i type="logical" name="EVENONLY"> F  </i>
   <i type="int" name="LMAXFOCK">     0</i>
   <i type="int" name="NMAXFOCKAE">     0</i>
   <i type="logical" name="LFOCKAEDFT"> F  </i>
   <i name="HFSCREEN">      0.00000000</i>
   <i name="HFSCREENC">      0.00000000</i>
   <i type="int" name="NBANDSGWLOW">     0</i>
  </separator>
  <separator name="vdW DFT" >
   <i type="logical" name="LUSE_VDW"> F  </i>
   <i name="Zab_VDW">     -0.84910000</i>
   <i name="PARAM1">      0.12340000</i>
   <i name="PARAM2">      1.00000000</i>
   <i name="PARAM3">      0.00000000</i>
  </separator>
  <separator name="model GW" >
   <i type="int" name="MODEL_GW">     0</i>
   <i name="MODEL_EPS0">     22.35169363</i>
   <i name="MODEL_ALPHA">      1.00000000</i>
  </separator>
  <separator name="linear response parameters" >
   <i type="logical" name="LEPSILON"> F  </i>
   <i type="logical" name="LRPA"> F  </i>
   <i type="logical" name="LNABLA"> F  </i>
   <i type="logical" name="LVEL"> F  </i>
   <i type="int" name="KINTER">     0</i>
   <i name="CSHIFT">      0.10000000</i>
   <i name="OMEGAMAX">     -1.00000000</i>
   <i name="DEG_THRESHOLD">      0.00200000</i>
  </separator>
  <separator name="orbital magnetization" >
   <i type="logical" name="NUCIND"> F  </i>
   <v name="MAGPOS">      0.00000000      0.00000000      0.00000000</v>
   <i type="logical" name="LNICSALL"> T  </i>
   <i type="logical" name="ORBITALMAG"> F  </i>
   <i type="logical" name="LMAGBLOCH"> F  </i>
   <i type="logical" name="LCHIMAG"> F  </i>
   <i type="logical" name="LGAUGE"> T  </i>
   <i type="int" name="MAGATOM">     0</i>
   <v name="MAGDIPOL">      0.00000000      0.00000000      0.00000000</v>
   <v name="AVECCONST">      0.00000000      0.00000000      0.00000000</v>
  </separator>
  <separator name="response functions" >
   <i type="logical" name="LADDER"> F  </i>
   <i type="logical" name="LHARTREE"> T  </i>
   <i type="int" name="IBSE">     0</i>
   <i type="logical" name="LTCTE"> F  </i>
   <i type="logical" name="LTETE"> F  </i>
   <i type="logical" name="LTRIPLET"> F  </i>
   <i type="logical" name="LFXCEPS"> F  </i>
   <i type="logical" name="L2ORDER"> F  </i>
   <i type="logical" name="LUSEW"> F  </i>
   <i name="ENCUTGW">     -2.00000000</i>
   <i name="ENCUTGWSOFT">     -2.00000000</i>
   <i name="ENCUTLF">     -1.00000000</i>
   <i type="int" name="LMAXMP2">    -1</i>
   <i name="SCISSOR">      0.00000000</i>
   <i type="int" name="NOMEGA">     0</i>
   <i type="int" name="NOMEGAR">     0</i>
   <i type="int" name="NBANDSGW">    -1</i>
   <i type="int" name="NBANDSO">    -1</i>
   <i type="int" name="NBANDSV">    -1</i>
   <i type="int" name="NELM">     1</i>
   <i type="int" name="DIM">     3</i>
   <i type="int" name="ANTIRES">     0</i>
   <i name="OMEGAMAX">    -30.00000000</i>
   <i name="OMEGATL">   -200.00000000</i>
   <i type="int" name="OMEGAGRID">     0</i>
   <i name="CSHIFT">     -0.10000000</i>
   <i type="logical" name="SELFENERGY"> F  </i>
   <i type="logical" name="LSPECTRAL"> F  </i>
   <i type="logical" name="ODDONLYGW"> F  </i>
   <i type="logical" name="EVENONLYGW"> F  </i>
   <i type="int" name="NKREDLFX">     1</i>
   <i type="int" name="NKREDLFY">     1</i>
   <i type="int" name="NKREDLFZ">     1</i>
   <i type="int" name="MAXMEM">  1800</i>
   <i type="int" name="TELESCOPE">     0</i>
  </separator>
 </parameters>
 <atominfo>
  <atoms>       2 </atoms>
  <types>       1 </types>
  <array name="atoms" >
   <dimension dim="1">ion</dimension>
   <field type="string">element</field>
   <field type="int">atomtype</field>
   <set>
    <rc><c>Na</c><c>   1</c></rc>
    <rc><c>Na</c><c>   1</c></rc>
   </set>
  </array>
  <array name="atomtypes" >
   <dimension dim="1">type</dimension>
   <field type="int">atomspertype</field>
   <field type="string">element</field>
   <field>mass</field>
   <field>valence</field>
   <field type="string">pseudopotential</field>
   <set>
    <rc><c>   2</c><c>Na</c><c>     22.99000000</c><c>      1.00000000</c><c>  PAW Na                                </c></rc>
   </set>
  </array>
 </atominfo>
 <structure name="initialpos" >
  <crystal>
   <varray name="basis" >
    <v>       4.20787723       0.00000000       0.00000000 </v>
    <v>       0.00000000       4.20787723       0.00000000 </v>
    <v>       0.00000000       0.00000000       4.20787723 </v>
   </varray>
   <i name="volume">     74.50564545 </i>
   <varray name="rec_basis" >
    <v>       0.23764952       0.00000000       0.00000000 </v>
    <v>       0.00000000       0.23764952       0.00000000 </v>
    <v>       0.00000000       0.00000000       0.23764952 </v>
   </varray>
  </crystal>
  <varray name="positions" >
   <v>       0.00000000       0.00000000       0.00000000 </v>
   <v>       0.50000000       0.50000000       0.50000000 </v>
  </varray>
 </structure>
 <calculation>
  <scstep>
   <time name="dav">    0.07    0.07</time>
   <time name="total">    0.08    0.09</time>
   <energy>
    <i name="alphaZ">     -1.09990973 </i>
    <i name="ewald">    -12.45382993 </i>
    <i name="hartreedc">     -0.02648415 </i>
    <i name="XCdc">    -71.42792478 </i>
    <i name="pawpsdc">     73.26627624 </i>
    <i name="pawaedc">      0.18770592 </i>
    <i name="eentropy">     -0.00137708 </i>
    <i name="bandstr">     -1.70089983 </i>
    <i name="atom">     10.37590127 </i>
    <i name="e_fr_energy">     -2.88054206 </i>
    <i name="e_wo_entrp">     -2.87916498 </i>
    <i name="e_0_energy">     -2.88008303 </i>
   </energy>
  </scstep>
  <scstep>
   <time name="dav">    0.08    0.08</time>
   <time name="total">    0.10    0.10</time>
   <energy>
    <i name="e_fr_energy">     -2.88054578 </i>
    <i name="e_wo_entrp">     -2.87916849 </i>
    <i name="e_0_energy">     -2.88008669 </i>
   </energy>
  </scstep>
  <scstep>
   <time name="dav">    0.07    0.07</time>
   <time name="total">    0.09    0.09</time>
   <energy>
    <i name="e_fr_energy">     -2.88054268 </i>
    <i name="e_wo_entrp">     -2.87916499 </i>
    <i name="e_0_energy">     -2.88008345 </i>
   </energy>
  </scstep>
  <scstep>
   <time name="dav">    0.05    0.05</time>
   <time name="total">    0.06    0.06</time>
   <energy>
    <i name="alphaZ">     -1.09990973 </i>
    <i name="ewald">    -12.45382993 </i>
    <i name="hartreedc">     -0.02437228 </i>
    <i name="XCdc">    -71.43410201 </i>
    <i name="pawpsdc">     73.27385303 </i>
    <i name="pawaedc">      0.17944702 </i>
    <i name="eentropy">     -0.00137765 </i>
    <i name="bandstr">     -1.69615227 </i>
    <i name="atom">     10.37590127 </i>
    <i name="e_fr_energy">     -2.88054254 </i>
    <i name="e_wo_entrp">     -2.87916489 </i>
    <i name="e_0_energy">     -2.88008332 </i>
   </energy>
  </scstep>
  <structure>
   <crystal>
    <varray name="basis" >
     <v>       4.20787723       0.00000000       0.00000000 </v>
     <v>       0.00000000       4.20787723       0.00000000 </v>
     <v>       0.00000000       0.00000000       4.20787723 </v>
    </varray>
    <i name="volume">     74.50564545 </i>
    <varray name="rec_basis" >
     <v>       0.23764952       0.00000000       0.00000000 </v>
     <v>       0.00000000       0.23764952       0.00000000 </v>
     <v>       0.00000000       0.00000000       0.23764952 </v>
    </varray>
   </crystal>
   <varray name="positions" >
    <v>       0.00000000       0.00000000       0.00000000 </v>
    <v>       0.50000000       0.50000000       0.50000000 </v>
   </varray>
  </structure>
  <varray name="forces" >
   <v>       0.00000000       0.00000000       0.00000000 </v>
   <v>       0.00000000       0.00000000       0.00000000 </v>
  </varray>
  <varray name="stress" >
   <v>      -9.02488332       0.00000000       0.00000000 </v>
   <v>       0.00000000      -9.02488332       0.00000000 </v>
   <v>       0.00000000       0.00000000      -9.02488332 </v>
  </varray>
  <energy>
   <i name="e_fr_energy">     -2.88054254 </i>
   <i name="e_wo_entrp">     -2.88008332 </i>
   <i name="e_0_energy">     -0.00137765 </i>
  </energy>
  <time name="totalsc">    0.43    0.45</time>
  <eigenvalues>
   <array>
    <dimension dim="1">band</dimension>
    <dimension dim="2">kpoint</dimension>
    <dimension dim="3">spin</dimension>
    <field>eigene</field>
    <field>occ</field>
    <set>
     <set comment="spin 1">
      <set comment="kpoint 1">
       <r>   -2.7685    1.0000 </r>
       <r>    4.4024    0.0000 </r>
       <r>    4.4024    0.0000 </r>
       <r>    5.0602    0.0000 </r>
       <r>    5.9912    0.0000 </r>
       <r>    5.9912    0.0000 </r>
      </set>
      <set comment="kpoint 2">
       <r>   -2.5936    1.0000 </r>
       <r>    3.1867    0.0000 </r>
       <r>    4.5607    0.0000 </r>
       <r>    5.1209    0.0000 </r>
       <r>    6.1460    0.0000 </r>
       <r>    6.9532    0.0000 </r>
      </set>
      <set comment="kpoint 3">
       <r>   -2.2454    1.0000 </r>
       <r>    1.9409    0.0000 </r>
       <r>    4.8759    0.0000 </r>
       <r>    5.4133    0.0000 </r>
       <r>    6.4544    0.0000 </r>
       <r>    7.5897    0.0000 </r>
      </set>
      <set comment="kpoint 4">
       <r>   -1.7244    1.0000 </r>
       <r>    0.8045   -0.0136 </r>
       <r>    5.3532    0.0000 </r>
       <r>    5.8630    0.0000 </r>
       <r>    6.9254    0.0000 </r>
       <r>    7.7020    0.0000 </r>
      </set>
      <set comment="kpoint 5">
       <r>   -1.0394    1.0000 </r>
       <r>   -0.1946    1.0000 </r>
       <r>    5.9782    0.0000 </r>
       <r>    6.4598    0.0000 </r>
       <r>    6.7633    0.0000 </r>
       <r>    7.2058    0.0000 </r>
      </set>
      <set comment="kpoint 6">
       <r>   -2.4193    1.0000 </r>
       <r>    3.1559    0.0000 </r>
       <r>    3.5988    0.0000 </r>
       <r>    5.1123    0.0000 </r>
       <r>    6.6503    0.0000 </r>
       <r>    7.8779    0.0000 </r>
      </set>
      <set comment="kpoint 7">
       <r>   -2.0720    1.0000 </r>
       <r>    2.0916    0.0000 </r>
       <r>    3.7371    0.0000 </r>
       <r>    5.4066    0.0000 </r>
       <r>    7.0172    0.0000 </r>
       <r>    7.6329    0.0000 </r>
      </set>
      <set comment="kpoint 8">
       <r>   -1.5531    1.0000 </r>
       <r>    0.9673   -0.0006 </r>
       <r>    4.2000    0.0000 </r>
       <r>    5.8645    0.0000 </r>
       <r>    6.5520    0.0000 </r>
       <r>    7.5114    0.0000 </r>
      </set>
      <set comment="kpoint 9">
       <r>   -0.8687    1.0000 </r>
       <r>   -0.0264    1.0024 </r>
       <r>    4.8296    0.0000 </r>
       <r>    5.6160    0.0000 </r>
       <r>    6.4694    0.0000 </r>
       <r>    7.2246    0.0000 </r>
      </set>
      <set comment="kpoint 10">
       <r>   -1.7257    1.0000 </r>
       <r>    2.2250    0.0000 </r>
       <r>    2.6844    0.0000 </r>
       <r>    5.6998    0.0000 </r>
       <r>    6.4273    0.0000 </r>
       <r>    7.4131    0.0000 </r>
      </set>
      <set comment="kpoint 11">
       <r>   -1.2100    1.0000 </r>
       <r>    1.2876    0.0000 </r>
       <r>    2.9708    0.0000 </r>
       <r>    5.3392    0.0000 </r>
       <r>    6.1537    0.0000 </r>
       <r>    7.9158    0.0000 </r>
      </set>
      <set comment="kpoint 12">
       <r>   -0.5303    1.0000 </r>
       <r>    0.3061    0.9493 </r>
       <r>    3.5968    0.0000 </r>
       <r>    4.3935    0.0000 </r>
       <r>    6.7564    0.0000 </r>
       <r>    7.5067    0.0000 </r>
      </set>
      <set comment="kpoint 13">
       <r>   -0.6983    1.0000 </r>
       <r>    1.5999    0.0000 </r>
       <r>    2.0251    0.0000 </r>
       <r>    4.2427    0.0000 </r>
       <r>    6.6049    0.0000 </r>
       <r>    8.4156    0.0000 </r>
      </set>
      <set comment="kpoint 14">
       <r>   -0.0253    1.0024 </r>
       <r>    0.7987   -0.0147 </r>
       <r>    2.4921    0.0000 </r>
       <r>    3.2882    0.0000 </r>
       <r>    7.2000    0.0000 </r>
       <r>    7.9231    0.0000 </r>
      </set>
      <set comment="kpoint 15">
       <r>    0.6357   -0.0226 </r>
       <r>    1.2894    0.0000 </r>
       <r>    1.6840    0.0000 </r>
       <r>    2.3312    0.0000 </r>
       <r>    7.7685    0.0000 </r>
       <r>    8.2550    0.0000 </r>
      </set>
      <set comment="kpoint 16">
       <r>   -2.2454    1.0000 </r>
       <r>    3.3105    0.0000 </r>
       <r>    3.3105    0.0000 </r>
       <r>    4.2091    0.0000 </r>
       <r>    8.0329    0.0000 </r>
       <r>    8.0329    0.0000 </r>
      </set>
      <set comment="kpoint 17">
       <r>   -1.8992    1.0000 </r>
       <r>    2.2422    0.0000 </r>
       <r>    3.6269    0.0000 </r>
       <r>    4.3386    0.0000 </r>
       <r>    7.5418    0.0000 </r>
       <r>    8.0609    0.0000 </r>
      </set>
      <set comment="kpoint 18">
       <r>   -1.3822    1.0000 </r>
       <r>    1.1293    0.0000 </r>
       <r>    4.0948    0.0000 </r>
       <r>    4.7891    0.0000 </r>
       <r>    6.4432    0.0000 </r>
       <r>    7.0831    0.0000 </r>
      </set>
      <set comment="kpoint 19">
       <r>   -0.6985    1.0000 </r>
       <r>    0.1411    1.0278 </r>
       <r>    4.7214    0.0000 </r>
       <r>    5.4117    0.0000 </r>
       <r>    5.5056    0.0000 </r>
       <r>    6.1850    0.0000 </r>
      </set>
      <set comment="kpoint 20">
       <r>   -1.5537    1.0000 </r>
       <r>    2.3771    0.0000 </r>
       <r>    2.8063    0.0000 </r>
       <r>    4.3963    0.0000 </r>
       <r>    6.5324    0.0000 </r>
       <r>    7.8481    0.0000 </r>
      </set>
      <set comment="kpoint 21">
       <r>   -1.0387    1.0000 </r>
       <r>    1.4476    0.0000 </r>
       <r>    3.1066    0.0000 </r>
       <r>    4.8426    0.0000 </r>
       <r>    5.4603    0.0000 </r>
       <r>    7.1006    0.0000 </r>
      </set>
      <set comment="kpoint 22">
       <r>   -0.3602    1.0000 </r>
       <r>    0.4730    0.3635 </r>
       <r>    3.7313    0.0000 </r>
       <r>    4.5203    0.0000 </r>
       <r>    5.4628    0.0000 </r>
       <r>    6.2287    0.0000 </r>
      </set>
      <set comment="kpoint 23">
       <r>   -0.5297    1.0000 </r>
       <r>    1.7557    0.0000 </r>
       <r>    2.1865    0.0000 </r>
       <r>    4.3872    0.0000 </r>
       <r>    5.2839    0.0000 </r>
       <r>    7.2183    0.0000 </r>
      </set>
      <set comment="kpoint 24">
       <r>    0.1421    1.0281 </r>
       <r>    0.9633   -0.0007 </r>
       <r>    2.6495    0.0000 </r>
       <r>    3.4391    0.0000 </r>
       <r>    5.8917    0.0000 </r>
       <r>    6.6151    0.0000 </r>
      </set>
      <set comment="kpoint 25">
       <r>    0.8002   -0.0145 </r>
       <r>    1.4454    0.0000 </r>
       <r>    1.8550    0.0000 </r>
       <r>    2.4907    0.0000 </r>
       <r>    6.4560    0.0000 </r>
       <r>    6.9023    0.0000 </r>
      </set>
      <set comment="kpoint 26">
       <r>   -1.2087    1.0000 </r>
       <r>    2.6883    0.0000 </r>
       <r>    2.6883    0.0000 </r>
       <r>    3.5770    0.0000 </r>
       <r>    6.6005    0.0000 </r>
       <r>    6.6005    0.0000 </r>
      </set>
      <set comment="kpoint 27">
       <r>   -0.6987    1.0000 </r>
       <r>    1.7620    0.0000 </r>
       <r>    3.1565    0.0000 </r>
       <r>    3.8650    0.0000 </r>
       <r>    5.5022    0.0000 </r>
       <r>    6.0760    0.0000 </r>
      </set>
      <set comment="kpoint 28">
       <r>   -0.0244    1.0025 </r>
       <r>    0.8026   -0.0140 </r>
       <r>    3.7798    0.0000 </r>
       <r>    4.4794    0.0000 </r>
       <r>    4.5624    0.0000 </r>
       <r>    5.2453    0.0000 </r>
      </set>
      <set comment="kpoint 29">
       <r>   -0.1935    1.0000 </r>
       <r>    2.0670    0.0000 </r>
       <r>    2.4770    0.0000 </r>
       <r>    4.0757    0.0000 </r>
       <r>    4.6478    0.0000 </r>
       <r>    5.9692    0.0000 </r>
      </set>
      <set comment="kpoint 30">
       <r>    0.4731    0.3631 </r>
       <r>    1.2862    0.0000 </r>
       <r>    2.9445    0.0000 </r>
       <r>    3.7233    0.0000 </r>
       <r>    4.6716    0.0000 </r>
       <r>    5.3927    0.0000 </r>
      </set>
      <set comment="kpoint 31">
       <r>    1.1249    0.0000 </r>
       <r>    1.7556    0.0000 </r>
       <r>    2.1809    0.0000 </r>
       <r>    2.8014    0.0000 </r>
       <r>    5.2193    0.0000 </r>
       <r>    5.6555    0.0000 </r>
      </set>
      <set comment="kpoint 32">
       <r>    0.3064    0.9487 </r>
       <r>    2.5341    0.0000 </r>
       <r>    2.5341    0.0000 </r>
       <r>    3.3940    0.0000 </r>
       <r>    4.8726    0.0000 </r>
       <r>    4.8726    0.0000 </r>
      </set>
      <set comment="kpoint 33">
       <r>    0.9646   -0.0007 </r>
       <r>    1.7597    0.0000 </r>
       <r>    3.1544    0.0000 </r>
       <r>    3.8271    0.0000 </r>
       <r>    3.9341    0.0000 </r>
       <r>    4.5020    0.0000 </r>
      </set>
      <set comment="kpoint 34">
       <r>    1.6061    0.0000 </r>
       <r>    2.2224    0.0000 </r>
       <r>    2.6277    0.0000 </r>
       <r>    3.2361    0.0000 </r>
       <r>    4.1520    0.0000 </r>
       <r>    4.5618    0.0000 </r>
      </set>
      <set comment="kpoint 35">
       <r>    2.2303    0.0000 </r>
       <r>    2.8456    0.0000 </r>
       <r>    2.8456    0.0000 </r>
       <r>    3.5480    0.0000 </r>
       <r>    3.6259    0.0000 </r>
       <r>    3.6259    0.0000 </r>
      </set>
     </set>
    </set>
   </array>
  </eigenvalues>
  <separator name="orbital magnetization" >
   <v name="MAGDIPOLOUT">      0.00000000      0.00000000      0.00000000</v>
  </separator>
 </calculation>
 <structure name="finalpos" >
  <crystal>
   <varray name="basis" >
    <v>       4.20787723       0.00000000       0.00000000 </v>
    <v>       0.00000000       4.20787723       0.00000000 </v>
    <v>       0.00000000       0.00000000       4.20787723 </v>
   </varray>
   <i name="volume">     74.50564545 </i>
   <varray name="rec_basis" >
    <v>       0.23764952       0.00000000       0.00000000 </v>
    <v>       0.00000000       0.23764952       0.00000000 </v>
    <v>       0.00000000       0.00000000       0.23764952 </v>
   </varray>
  </crystal>
  <varray name="positions" >
   <v>       0.00000000       0.00000000       0.00000000 </v>
   <v>       0.50000000       0.50000000       0.50000000 </v>
  </varray>
 </structure>
</modeling>
