bcc Na                                  
           1
     4.207877    0.000000    0.000000
     0.000000    4.207877    0.000000
     0.000000    0.000000    4.207877
   Na
   2
Direct configuration=     1
   0.00000000  0.00000000  0.00000000
   0.50000000  0.50000000  0.50000000
