 running on    2 total cores
 distrk:  each k-point on    2 cores,    1 groups
 distr:  one band on    1 cores,    2 groups
 using from now: INCAR     
 vasp.5.3.2 13Sep12 (build Jun 30 2016 14:08:18) complex                        
  
 POSCAR found type information on POSCAR  Al
 POSCAR found :  1 types and       1 ions
 LDA part: xc-table for Ceperly-Alder, standard interpolation
 WARNING: stress and forces are not correct
 POSCAR, INCAR and KPOINTS ok, starting setup
 WARNING: small aliasing (wrap around) errors must be expected
 FFT: planning ...
 WAVECAR not read
 charge-density read from file: Al                                      
 entering main loop
       N       E                     dE             d eps       ncg     rms          rms(c)
DAV:   1    -0.296399501146E+01   -0.29640E+01   -0.54354E+02  5076   0.126E+02
DAV:   2    -0.339905630616E+01   -0.43506E+00   -0.40865E+00  5298   0.128E+01
DAV:   3    -0.340082437275E+01   -0.17681E-02   -0.17663E-02  4902   0.730E-01
DAV:   4    -0.340082606521E+01   -0.16925E-05   -0.16925E-05  5304   0.205E-02
DAV:   5    -0.340082606754E+01   -0.23268E-08   -0.25060E-08  4782   0.627E-04
DAV:   6    -0.340082606677E+01    0.76598E-09   -0.47493E-10  4794   0.581E-05
   1 F= -.34008261E+01 E0= -.34003892E+01  d E =-.131067E-02

------------------------------------------------------------
Sender: LSF System <lsfadmin@alps2-25>
Subject: Job 427056: <vasp> in cluster <cluster5> Done

Job <vasp> was submitted from host <alps6> by user <s11gyg07> in cluster <cluster5>.
Job was executed on host(s) <2*alps2-25>, in queue <test>, as user <s11gyg07> in cluster <cluster5>.
</home/s11gyg07> was used as the home directory.
</home/s11gyg07/midterm/1-Al/1-band-v2> was used as the working directory.
Started at Mon Nov  6 18:56:15 2017
Results reported on Mon Nov  6 18:56:22 2017

Your job looked like:

------------------------------------------------------------
# LSBATCH: User input
#!/bin/sh
#BSUB -a mvapich
#BSUB -n 2 
#BSUB -J vasp
#BSUB -o %J.out
#BSUB -e %J.err
#BSUB -q  test              # depend on -n
#BSUB -R 'span[ptile=48]' # uncomment when multi-nodes
#BSUB -R "ipathavail==0"  # uncomment when multi-nodes

source /pkg/mpi/intel/12/mvapich2-1.8/bin/mpivars.sh

VASP=/home/$USER/bin/vasp_ntu

mpiexec -np ${LSB_DJOB_NUMPROC} ${VASP}

------------------------------------------------------------

Successfully completed.

Resource usage summary:

    CPU time :                                   13.58 sec.
    Total Requested Memory :                     -
    Delta Memory :                               -

The output (if any) is above this job summary.



PS:

Read file <427056.err> for stderr output of this job.

