Al                                      
   4.05000000000000     
     0.000000    0.500000    0.500000
     0.500000    0.000000    0.500000
     0.500000    0.500000    0.000000
   Al
     1
Direct
  0.000000  0.000000  0.000000
 
   24   24   24
 -.20953335794E+00 -.61327215955E-01 0.36341122980E+00 0.10012822072E+01 0.17441729246E+01
 0.24579038737E+01 0.30221390312E+01 0.33714264026E+01 0.35127833681E+01 0.35109825441E+01
 0.34459318294E+01 0.33790605525E+01 0.33518994982E+01 0.33790605525E+01 0.34459318294E+01
 0.35109825441E+01 0.35127833681E+01 0.33714264026E+01 0.30221390312E+01 0.24579038737E+01
 0.17441729246E+01 0.10012822072E+01 0.36341122980E+00 -.61327215955E-01 -.61327215955E-01
 0.22530395802E+00 0.75692069750E+00 0.14469666747E+01 0.21719401390E+01 0.28018528185E+01
 0.32430638223E+01 0.34687800872E+01 0.35193382825E+01 0.34726389469E+01 0.33980138614E+01
 0.33466963013E+01 0.33467290883E+01 0.33980470436E+01 0.34726074532E+01 0.35193067182E+01
 0.34688128527E+01 0.32430989139E+01 0.28018305387E+01 0.21719180269E+01 0.14469821057E+01
 0.75688914423E+00 0.22518813157E+00 -.61398876415E-01 0.36341122980E+00 0.75692069750E+00
 0.13409152849E+01 0.20103911345E+01 0.26406877573E+01 0.31246851164E+01 0.34087321004E+01
 0.35060500636E+01 0.34804298862E+01 0.34040069120E+01 0.33327774651E+01 0.33046203504E+01
 0.33327776242E+01 0.34040071397E+01 0.34804300874E+01 0.35060502385E+01 0.34087324143E+01
 0.31246858147E+01 0.26406890489E+01 0.20103930000E+01 0.13409174332E+01 0.75692261485E+00
 0.36341236106E+00 0.22518813157E+00 0.10012822072E+01 0.14469666747E+01 0.20103911345E+01
 0.25817132598E+01 0.30541876312E+01 0.33586907282E+01 0.34848254093E+01 0.34765414914E+01
 0.34008330028E+01 0.33141565417E+01 0.32593869350E+01 0.32593639768E+01 0.33141340318E+01
 0.34008569378E+01 0.34765638808E+01 0.34847977395E+01 0.33586611598E+01 0.30542114527E+01
 0.25817542493E+01 0.20104029438E+01 0.14469830717E+01 0.10013344376E+01 0.75692261485E+00
 0.75688914423E+00 0.17441729246E+01 0.21719401390E+01 0.26406877573E+01 0.30541876312E+01
 0.33393600738E+01 0.34697442870E+01 0.34696804114E+01 0.33942726529E+01 0.32959719590E+01
 0.32182409776E+01 0.31891698803E+01 0.32182410930E+01 0.32959720307E+01 0.33942724857E+01
 0.34696799548E+01 0.34697437167E+01 0.33393597552E+01 0.30541879193E+01 0.26406887740E+01
 0.21719416862E+01 0.17441744818E+01 0.14469830717E+01 0.13409174332E+01 0.14469821057E+01
 0.24579038737E+01 0.28018528185E+01 0.31246851164E+01 0.33586907282E+01 0.34697442870E+01
 0.34665272292E+01 0.33894743849E+01 0.32829936235E+01 0.31874391657E+01 0.31322731310E+01
 0.31322805058E+01 0.31874450429E+01 0.32829837999E+01 0.33894697013E+01 0.34665437337E+01
 0.34697533443E+01 0.33586605644E+01 0.31246358322E+01 0.28018300450E+01 0.24579177409E+01
 0.21719416862E+01 0.20104029438E+01 0.20103930000E+01 0.21719180269E+01 0.30221390312E+01
 0.32430638223E+01 0.34087321004E+01 0.34848254093E+01 0.34696804114E+01 0.33894743849E+01
 0.32782946026E+01 0.31710764385E+01 0.30957268942E+01 0.30688375278E+01 0.30957272461E+01
 0.31710770158E+01 0.32782952096E+01 0.33894748158E+01 0.34696805304E+01 0.34848251932E+01
 0.34087315964E+01 0.32430631998E+01 0.30221384098E+01 0.28018300450E+01 0.26406887740E+01
 0.25817542493E+01 0.26406890489E+01 0.28018305387E+01 0.33714264026E+01 0.34687800872E+01
 0.35060500636E+01 0.34765414914E+01 0.33942726529E+01 0.32829936235E+01 0.31710764385E+01
 0.30831756205E+01 0.30354945215E+01 0.30354997944E+01 0.30831828993E+01 0.31710735196E+01
 0.32829843653E+01 0.33942741849E+01 0.34765649079E+01 0.35060886988E+01 0.34688123712E+01
 0.33714283372E+01 0.32430631998E+01 0.31246358322E+01 0.30541879193E+01 0.30542114527E+01
 0.31246858147E+01 0.32430989139E+01 0.35127833681E+01 0.35193382825E+01 0.34804298862E+01
 0.34008330028E+01 0.32959719590E+01 0.31874391657E+01 0.30957268942E+01 0.30354945215E+01
 0.30146310659E+01 0.30354942282E+01 0.30957266081E+01 0.31874392986E+01 0.32959727404E+01
 0.34008343507E+01 0.34804313308E+01 0.35193393253E+01 0.35127836541E+01 0.34688123712E+01
 0.34087315964E+01 0.33586605644E+01 0.33393597552E+01 0.33586611598E+01 0.34087324143E+01
 0.34688128527E+01 0.35109825441E+01 0.34726389469E+01 0.34040069120E+01 0.33141565417E+01
 0.32182409776E+01 0.31322731310E+01 0.30688375278E+01 0.30354997944E+01 0.30354942282E+01
 0.30688320537E+01 0.31322794353E+01 0.32182444900E+01 0.33141343168E+01 0.34039644682E+01
 0.34726086491E+01 0.35109871381E+01 0.35193393253E+01 0.35060886988E+01 0.34848251932E+01
 0.34697533443E+01 0.34697437167E+01 0.34847977395E+01 0.35060502385E+01 0.35193067182E+01
 0.34459318294E+01 0.33980138614E+01 0.33327774651E+01 0.32593869350E+01 0.31891698803E+01
 0.31322805058E+01 0.30957272461E+01 0.30831828993E+01 0.30957266081E+01 0.31322794353E+01
 0.31891687057E+01 0.32593860264E+01 0.33327770803E+01 0.33980141212E+01 0.34459326791E+01
 0.34726086491E+01 0.34804313308E+01 0.34765649079E+01 0.34696805304E+01 0.34665437337E+01
 0.34696799548E+01 0.34765638808E+01 0.34804300874E+01 0.34726074532E+01 0.33790605525E+01
 0.33466963013E+01 0.33046203504E+01 0.32593639768E+01 0.32182410930E+01 0.31874450429E+01
 0.31710770158E+01 0.31710735196E+01 0.31874392986E+01 0.32182444900E+01 0.32593860264E+01
 0.33046574773E+01 0.33467277625E+01 0.33790618687E+01 0.33980141212E+01 0.34039644682E+01
 0.34008343507E+01 0.33942741849E+01 0.33894748158E+01 0.33894697013E+01 0.33942724857E+01
 0.34008569378E+01 0.34040071397E+01 0.33980470436E+01 0.33518994982E+01 0.33467290883E+01
 0.33327776242E+01 0.33141340318E+01 0.32959720307E+01 0.32829837999E+01 0.32782952096E+01
 0.32829843653E+01 0.32959727404E+01 0.33141343168E+01 0.33327770803E+01 0.33467277625E+01
 0.33518978607E+01 0.33467277625E+01 0.33327770803E+01 0.33141343168E+01 0.32959727404E+01
 0.32829843653E+01 0.32782952096E+01 0.32829837999E+01 0.32959720307E+01 0.33141340318E+01
 0.33327776242E+01 0.33467290883E+01 0.33790605525E+01 0.33980470436E+01 0.34040071397E+01
 0.34008569378E+01 0.33942724857E+01 0.33894697013E+01 0.33894748158E+01 0.33942741849E+01
 0.34008343507E+01 0.34039644682E+01 0.33980141212E+01 0.33790618687E+01 0.33467277625E+01
 0.33046574773E+01 0.32593860264E+01 0.32182444900E+01 0.31874392986E+01 0.31710735196E+01
 0.31710770158E+01 0.31874450429E+01 0.32182410930E+01 0.32593639768E+01 0.33046203504E+01
 0.33466963013E+01 0.34459318294E+01 0.34726074532E+01 0.34804300874E+01 0.34765638808E+01
 0.34696799548E+01 0.34665437337E+01 0.34696805304E+01 0.34765649079E+01 0.34804313308E+01
 0.34726086491E+01 0.34459326791E+01 0.33980141212E+01 0.33327770803E+01 0.32593860264E+01
 0.31891687057E+01 0.31322794353E+01 0.30957266081E+01 0.30831828993E+01 0.30957272461E+01
 0.31322805058E+01 0.31891698803E+01 0.32593869350E+01 0.33327774651E+01 0.33980138614E+01
 0.35109825441E+01 0.35193067182E+01 0.35060502385E+01 0.34847977395E+01 0.34697437167E+01
 0.34697533443E+01 0.34848251932E+01 0.35060886988E+01 0.35193393253E+01 0.35109871381E+01
 0.34726086491E+01 0.34039644682E+01 0.33141343168E+01 0.32182444900E+01 0.31322794353E+01
 0.30688320537E+01 0.30354942282E+01 0.30354997944E+01 0.30688375278E+01 0.31322731310E+01
 0.32182409776E+01 0.33141565417E+01 0.34040069120E+01 0.34726389469E+01 0.35127833681E+01
 0.34688128527E+01 0.34087324143E+01 0.33586611598E+01 0.33393597552E+01 0.33586605644E+01
 0.34087315964E+01 0.34688123712E+01 0.35127836541E+01 0.35193393253E+01 0.34804313308E+01
 0.34008343507E+01 0.32959727404E+01 0.31874392986E+01 0.30957266081E+01 0.30354942282E+01
 0.30146310659E+01 0.30354945215E+01 0.30957268942E+01 0.31874391657E+01 0.32959719590E+01
 0.34008330028E+01 0.34804298862E+01 0.35193382825E+01 0.33714264026E+01 0.32430989139E+01
 0.31246858147E+01 0.30542114527E+01 0.30541879193E+01 0.31246358322E+01 0.32430631998E+01
 0.33714283372E+01 0.34688123712E+01 0.35060886988E+01 0.34765649079E+01 0.33942741849E+01
 0.32829843653E+01 0.31710735196E+01 0.30831828993E+01 0.30354997944E+01 0.30354945215E+01
 0.30831756205E+01 0.31710764385E+01 0.32829936235E+01 0.33942726529E+01 0.34765414914E+01
 0.35060500636E+01 0.34687800872E+01 0.30221390312E+01 0.28018305387E+01 0.26406890489E+01
 0.25817542493E+01 0.26406887740E+01 0.28018300450E+01 0.30221384098E+01 0.32430631998E+01
 0.34087315964E+01 0.34848251932E+01 0.34696805304E+01 0.33894748158E+01 0.32782952096E+01
 0.31710770158E+01 0.30957272461E+01 0.30688375278E+01 0.30957268942E+01 0.31710764385E+01
 0.32782946026E+01 0.33894743849E+01 0.34696804114E+01 0.34848254093E+01 0.34087321004E+01
 0.32430638223E+01 0.24579038737E+01 0.21719180269E+01 0.20103930000E+01 0.20104029438E+01
 0.21719416862E+01 0.24579177409E+01 0.28018300450E+01 0.31246358322E+01 0.33586605644E+01
 0.34697533443E+01 0.34665437337E+01 0.33894697013E+01 0.32829837999E+01 0.31874450429E+01
 0.31322805058E+01 0.31322731310E+01 0.31874391657E+01 0.32829936235E+01 0.33894743849E+01
 0.34665272292E+01 0.34697442870E+01 0.33586907282E+01 0.31246851164E+01 0.28018528185E+01
 0.17441729246E+01 0.14469821057E+01 0.13409174332E+01 0.14469830717E+01 0.17441744818E+01
 0.21719416862E+01 0.26406887740E+01 0.30541879193E+01 0.33393597552E+01 0.34697437167E+01
 0.34696799548E+01 0.33942724857E+01 0.32959720307E+01 0.32182410930E+01 0.31891698803E+01
 0.32182409776E+01 0.32959719590E+01 0.33942726529E+01 0.34696804114E+01 0.34697442870E+01
 0.33393600738E+01 0.30541876312E+01 0.26406877573E+01 0.21719401390E+01 0.10012822072E+01
 0.75688914423E+00 0.75692261485E+00 0.10013344376E+01 0.14469830717E+01 0.20104029438E+01
 0.25817542493E+01 0.30542114527E+01 0.33586611598E+01 0.34847977395E+01 0.34765638808E+01
 0.34008569378E+01 0.33141340318E+01 0.32593639768E+01 0.32593869350E+01 0.33141565417E+01
 0.34008330028E+01 0.34765414914E+01 0.34848254093E+01 0.33586907282E+01 0.30541876312E+01
 0.25817132598E+01 0.20103911345E+01 0.14469666747E+01 0.36341122980E+00 0.22518813157E+00
 0.36341236106E+00 0.75692261485E+00 0.13409174332E+01 0.20103930000E+01 0.26406890489E+01
 0.31246858147E+01 0.34087324143E+01 0.35060502385E+01 0.34804300874E+01 0.34040071397E+01
 0.33327776242E+01 0.33046203504E+01 0.33327774651E+01 0.34040069120E+01 0.34804298862E+01
 0.35060500636E+01 0.34087321004E+01 0.31246851164E+01 0.26406877573E+01 0.20103911345E+01
 0.13409152849E+01 0.75692069750E+00 -.61327215955E-01 -.61398876415E-01 0.22518813157E+00
 0.75688914423E+00 0.14469821057E+01 0.21719180269E+01 0.28018305387E+01 0.32430989139E+01
 0.34688128527E+01 0.35193067182E+01 0.34726074532E+01 0.33980470436E+01 0.33467290883E+01
 0.33466963013E+01 0.33980138614E+01 0.34726389469E+01 0.35193382825E+01 0.34687800872E+01
 0.32430638223E+01 0.28018528185E+01 0.21719401390E+01 0.14469666747E+01 0.75692069750E+00
 0.22530395802E+00 -.61327215955E-01 0.22530395802E+00 0.75692069750E+00 0.14469666747E+01
 0.21719401390E+01 0.28018528185E+01 0.32430638223E+01 0.34687800872E+01 0.35193382825E+01
 0.34726389469E+01 0.33980138614E+01 0.33466963013E+01 0.33467290883E+01 0.33980470436E+01
 0.34726074532E+01 0.35193067182E+01 0.34688128527E+01 0.32430989139E+01 0.28018305387E+01
 0.21719180269E+01 0.14469821057E+01 0.75688914423E+00 0.22518813157E+00 -.61398876415E-01
 0.22530395802E+00 0.63187761815E+00 0.12369702682E+01 0.19335904320E+01 0.25934253889E+01
 0.31049299445E+01 0.34108141904E+01 0.35226489812E+01 0.35048819607E+01 0.34322740223E+01
 0.33625220502E+01 0.33347022755E+01 0.33625221955E+01 0.34322782570E+01 0.35048867010E+01
 0.35226459866E+01 0.34108101146E+01 0.31049463533E+01 0.25934614977E+01 0.19335955612E+01
 0.12368848088E+01 0.63171484890E+00 0.22516914330E+00 0.82649024415E-01 0.75692069750E+00
 0.12369702682E+01 0.18479914997E+01 0.24739355276E+01 0.29999737286E+01 0.33494673640E+01
 0.35075313098E+01 0.35177352307E+01 0.34512683688E+01 0.33684691131E+01 0.33148309642E+01
 0.33148058995E+01 0.33684459272E+01 0.34512973134E+01 0.35177605039E+01 0.35075012392E+01
 0.33494427825E+01 0.30000140641E+01 0.24739777936E+01 0.18479561121E+01 0.12368948799E+01
 0.75688252274E+00 0.49474003933E+00 0.49474384019E+00 0.14469666747E+01 0.19335904320E+01
 0.24739355276E+01 0.29609994606E+01 0.33108911174E+01 0.34896325580E+01 0.35193406760E+01
 0.34592104581E+01 0.33676633122E+01 0.32919902778E+01 0.32632361133E+01 0.32919862798E+01
 0.33676639751E+01 0.34592164959E+01 0.35193406913E+01 0.34896210708E+01 0.33108817017E+01
 0.29610106646E+01 0.24739674312E+01 0.19336236453E+01 0.14469845677E+01 0.11116313141E+01
 0.99242395694E+00 0.11116272726E+01 0.21719401390E+01 0.25934253889E+01 0.29999737286E+01
 0.33108911174E+01 0.34819996583E+01 0.35176205100E+01 0.34612374740E+01 0.33642125071E+01
 0.32714953907E+01 0.32165888815E+01 0.32165978964E+01 0.32715045649E+01 0.33642050272E+01
 0.34612318792E+01 0.35176312365E+01 0.34820057170E+01 0.33108804245E+01 0.29999721177E+01
 0.25934441730E+01 0.21719448274E+01 0.18268371381E+01 0.16335325430E+01 0.16335525047E+01
 0.18268647368E+01 0.28018528185E+01 0.31049299445E+01 0.33494673640E+01 0.34896325580E+01
 0.35176205100E+01 0.34613977415E+01 0.33615141125E+01 0.32575448532E+01 0.31819815477E+01
 0.31546410147E+01 0.31819826783E+01 0.32575451886E+01 0.33615161211E+01 0.34614067421E+01
 0.35176329447E+01 0.34896322602E+01 0.33494421540E+01 0.31048903977E+01 0.28018254967E+01
 0.25099233457E+01 0.23001986005E+01 0.22240873324E+01 0.23001883084E+01 0.25099247657E+01
 0.32430638223E+01 0.34108141904E+01 0.35075313098E+01 0.35193406760E+01 0.34612374740E+01
 0.33615141125E+01 0.32526176259E+01 0.31637279394E+01 0.31146066653E+01 0.31146067738E+01
 0.31637286809E+01 0.32526196327E+01 0.33615174132E+01 0.34612411887E+01 0.35193433084E+01
 0.35075315216E+01 0.34108125995E+01 0.32430636713E+01 0.30451310035E+01 0.28709890299E+01
 0.27695982018E+01 0.27695950378E+01 0.28709826370E+01 0.30451269674E+01 0.34687800872E+01
 0.35226489812E+01 0.35177352307E+01 0.34592104581E+01 0.33642125071E+01 0.32575448532E+01
 0.31637279394E+01 0.31008371513E+01 0.30788611408E+01 0.31008398828E+01 0.31637292956E+01
 0.32575411924E+01 0.33642071663E+01 0.34592152635E+01 0.35177610460E+01 0.35226908164E+01
 0.34688138709E+01 0.33709771714E+01 0.32609389147E+01 0.31755608102E+01 0.31435355932E+01
 0.31755906112E+01 0.32609679658E+01 0.33709755226E+01 0.35193382825E+01 0.35048819607E+01
 0.34512683688E+01 0.33676633122E+01 0.32714953907E+01 0.31819815477E+01 0.31146066653E+01
 0.30788611408E+01 0.30788578151E+01 0.31146024900E+01 0.31819834258E+01 0.32714997931E+01
 0.33676647981E+01 0.34512698518E+01 0.35048866306E+01 0.35193410179E+01 0.34964234048E+01
 0.34489552835E+01 0.33984519686E+01 0.33665462508E+01 0.33665444394E+01 0.33984510444E+01
 0.34489593527E+01 0.34964268499E+01 0.34726389469E+01 0.34322740223E+01 0.33684691131E+01
 0.32919902778E+01 0.32165888815E+01 0.31546410147E+01 0.31146067738E+01 0.31008398828E+01
 0.31146024900E+01 0.31546422496E+01 0.32165973129E+01 0.32919907172E+01 0.33684460371E+01
 0.34322340913E+01 0.34726088583E+01 0.34858289370E+01 0.34765729432E+01 0.34556811805E+01
 0.34359820345E+01 0.34280527196E+01 0.34359640844E+01 0.34556509076E+01 0.34765471723E+01
 0.34858287452E+01 0.33980138614E+01 0.33625220502E+01 0.33148309642E+01 0.32632361133E+01
 0.32165978964E+01 0.31819826783E+01 0.31637286809E+01 0.31637292956E+01 0.31819834258E+01
 0.32165973129E+01 0.32632347165E+01 0.33148302772E+01 0.33625224282E+01 0.33980147351E+01
 0.34164379894E+01 0.34181703525E+01 0.34085418254E+01 0.33955621763E+01 0.33868169895E+01
 0.33868175582E+01 0.33955630111E+01 0.34085416987E+01 0.34181693519E+01 0.34164368924E+01
 0.33466963013E+01 0.33347022755E+01 0.33148058995E+01 0.32919862798E+01 0.32715045649E+01
 0.32575451886E+01 0.32526196327E+01 0.32575411924E+01 0.32714997931E+01 0.32919907172E+01
 0.33148302772E+01 0.33347423054E+01 0.33467280498E+01 0.33478102371E+01 0.33382837069E+01
 0.33217391242E+01 0.33038033282E+01 0.32902363890E+01 0.32852094351E+01 0.32902361653E+01
 0.33038175467E+01 0.33217714332E+01 0.33383129336E+01 0.33478101613E+01 0.33467290883E+01
 0.33625221955E+01 0.33684459272E+01 0.33676639751E+01 0.33642050272E+01 0.33615161211E+01
 0.33615174132E+01 0.33642071663E+01 0.33676647981E+01 0.33684460371E+01 0.33625224282E+01
 0.33467280498E+01 0.33202237533E+01 0.32852428392E+01 0.32466739145E+01 0.32106875211E+01
 0.31831094245E+01 0.31682219742E+01 0.31682225698E+01 0.31831098273E+01 0.32106865997E+01
 0.32466737321E+01 0.32852451864E+01 0.33202266917E+01 0.33980470436E+01 0.34322782570E+01
 0.34512973134E+01 0.34592164959E+01 0.34612318792E+01 0.34614067421E+01 0.34612411887E+01
 0.34592152635E+01 0.34512698518E+01 0.34322340913E+01 0.33980147351E+01 0.33478102371E+01
 0.32852428392E+01 0.32177008580E+01 0.31542162593E+01 0.31030541567E+01 0.30701681065E+01
 0.30588675816E+01 0.30701721790E+01 0.31030535793E+01 0.31542007228E+01 0.32176708640E+01
 0.32852161693E+01 0.33478101613E+01 0.34726074532E+01 0.35048867010E+01 0.35177605039E+01
 0.35193406913E+01 0.35176312365E+01 0.35176329447E+01 0.35193433084E+01 0.35177610460E+01
 0.35048866306E+01 0.34726088583E+01 0.34164379894E+01 0.33382837069E+01 0.32466739145E+01
 0.31542162593E+01 0.30737447014E+01 0.30152319972E+01 0.29846855793E+01 0.29846873074E+01
 0.30152346335E+01 0.30737452379E+01 0.31542161664E+01 0.32466753093E+01 0.33382848346E+01
 0.34164368924E+01 0.35193067182E+01 0.35226459866E+01 0.35075012392E+01 0.34896210708E+01
 0.34820057170E+01 0.34896322602E+01 0.35075315216E+01 0.35226908164E+01 0.35193410179E+01
 0.34858289370E+01 0.34181703525E+01 0.33217391242E+01 0.32106875211E+01 0.31030541567E+01
 0.30152319972E+01 0.29586054533E+01 0.29391480667E+01 0.29586089310E+01 0.30152323867E+01
 0.31030541802E+01 0.32107013323E+01 0.33217710131E+01 0.34181999702E+01 0.34858287452E+01
 0.34688128527E+01 0.34108101146E+01 0.33494427825E+01 0.33108817017E+01 0.33108804245E+01
 0.33494421540E+01 0.34108125995E+01 0.34688138709E+01 0.34964234048E+01 0.34765729432E+01
 0.34085418254E+01 0.33038033282E+01 0.31831094245E+01 0.30701681065E+01 0.29846855793E+01
 0.29391480667E+01 0.29391456117E+01 0.29846828707E+01 0.30701700155E+01 0.31831117502E+01
 0.33038013359E+01 0.34085397540E+01 0.34765756543E+01 0.34964268499E+01 0.32430989139E+01
 0.31049463533E+01 0.30000140641E+01 0.29610106646E+01 0.29999721177E+01 0.31048903977E+01
 0.32430636713E+01 0.33709771714E+01 0.34489552835E+01 0.34556811805E+01 0.33955621763E+01
 0.32902363890E+01 0.31682219742E+01 0.30588675816E+01 0.29846873074E+01 0.29586089310E+01
 0.29846828707E+01 0.30588650206E+01 0.31682247237E+01 0.32902376029E+01 0.33955499066E+01
 0.34556531997E+01 0.34489279902E+01 0.33709755226E+01 0.28018305387E+01 0.25934614977E+01
 0.24739777936E+01 0.24739674312E+01 0.25934441730E+01 0.28018254967E+01 0.30451310035E+01
 0.32609389147E+01 0.33984519686E+01 0.34359820345E+01 0.33868169895E+01 0.32852094351E+01
 0.31682225698E+01 0.30701721790E+01 0.30152346335E+01 0.30152323867E+01 0.30701700155E+01
 0.31682247237E+01 0.32852115323E+01 0.33868165821E+01 0.34359847247E+01 0.33984582771E+01
 0.32609399831E+01 0.30451269674E+01 0.21719180269E+01 0.19335955612E+01 0.18479561121E+01
 0.19336236453E+01 0.21719448274E+01 0.25099233457E+01 0.28709890299E+01 0.31755608102E+01
 0.33665462508E+01 0.34280527196E+01 0.33868175582E+01 0.32902361653E+01 0.31831098273E+01
 0.31030535793E+01 0.30737452379E+01 0.31030541802E+01 0.31831117502E+01 0.32902376029E+01
 0.33868165821E+01 0.34280545685E+01 0.33665617913E+01 0.31755914804E+01 0.28710168333E+01
 0.25099247657E+01 0.14469821057E+01 0.12368848088E+01 0.12368948799E+01 0.14469845677E+01
 0.18268371381E+01 0.23001986005E+01 0.27695982018E+01 0.31435355932E+01 0.33665444394E+01
 0.34359640844E+01 0.33955630111E+01 0.33038175467E+01 0.32106865997E+01 0.31542007228E+01
 0.31542161664E+01 0.32107013323E+01 0.33038013359E+01 0.33955499066E+01 0.34359847247E+01
 0.33665617913E+01 0.31435152919E+01 0.27695773861E+01 0.23002171822E+01 0.18268647368E+01
 0.75688914423E+00 0.63171484890E+00 0.75688252274E+00 0.11116313141E+01 0.16335325430E+01
 0.22240873324E+01 0.27695950378E+01 0.31755906112E+01 0.33984510444E+01 0.34556509076E+01
 0.34085416987E+01 0.33217714332E+01 0.32466737321E+01 0.32176708640E+01 0.32466753093E+01
 0.33217710131E+01 0.34085397540E+01 0.34556531997E+01 0.33984582771E+01 0.31755914804E+01
 0.27695773861E+01 0.22240560619E+01 0.16335083232E+01 0.11116272726E+01 0.22518813157E+00
 0.22516914330E+00 0.49474003933E+00 0.99242395694E+00 0.16335525047E+01 0.23001883084E+01
 0.28709826370E+01 0.32609679658E+01 0.34489593527E+01 0.34765471723E+01 0.34181693519E+01
 0.33383129336E+01 0.32852451864E+01 0.32852161693E+01 0.33382848346E+01 0.34181999702E+01
 0.34765756543E+01 0.34489279902E+01 0.32609399831E+01 0.28710168333E+01 0.23002171822E+01
 0.16335083232E+01 0.99236774911E+00 0.49474384019E+00 -.61398876415E-01 0.82649024415E-01
 0.49474384019E+00 0.11116272726E+01 0.18268647368E+01 0.25099247657E+01 0.30451269674E+01
 0.33709755226E+01 0.34964268499E+01 0.34858287452E+01 0.34164368924E+01 0.33478101613E+01
 0.33202266917E+01 0.33478101613E+01 0.34164368924E+01 0.34858287452E+01 0.34964268499E+01
 0.33709755226E+01 0.30451269674E+01 0.25099247657E+01 0.18268647368E+01 0.11116272726E+01
 0.49474384019E+00 0.82649024415E-01 0.36341122980E+00 0.75692069750E+00 0.13409152849E+01
 0.20103911345E+01 0.26406877573E+01 0.31246851164E+01 0.34087321004E+01 0.35060500636E+01
 0.34804298862E+01 0.34040069120E+01 0.33327774651E+01 0.33046203504E+01 0.33327776242E+01
 0.34040071397E+01 0.34804300874E+01 0.35060502385E+01 0.34087324143E+01 0.31246858147E+01
 0.26406890489E+01 0.20103930000E+01 0.13409174332E+01 0.75692261485E+00 0.36341236106E+00
 0.22518813157E+00 0.75692069750E+00 0.12369702682E+01 0.18479914997E+01 0.24739355276E+01
 0.29999737286E+01 0.33494673640E+01 0.35075313098E+01 0.35177352307E+01 0.34512683688E+01
 0.33684691131E+01 0.33148309642E+01 0.33148058995E+01 0.33684459272E+01 0.34512973134E+01
 0.35177605039E+01 0.35075012392E+01 0.33494427825E+01 0.30000140641E+01 0.24739777936E+01
 0.18479561121E+01 0.12368948799E+01 0.75688252274E+00 0.49474003933E+00 0.49474384019E+00
 0.13409152849E+01 0.18479914997E+01 0.24133446234E+01 0.29262822696E+01 0.32991459159E+01
 0.34952574892E+01 0.35358328320E+01 0.34812812264E+01 0.33922422999E+01 0.33173728371E+01
 0.32887604683E+01 0.33173729799E+01 0.33922423651E+01 0.34812809531E+01 0.35358321771E+01
 0.34952567350E+01 0.32991456219E+01 0.29262829383E+01 0.24133464471E+01 0.18479940764E+01
 0.13409178082E+01 0.99236932144E+00 0.86862541013E+00 0.99236774911E+00 0.20103911345E+01
 0.24739355276E+01 0.29262822696E+01 0.32796962835E+01 0.34844268809E+01 0.35422272576E+01
 0.34977206212E+01 0.34062506925E+01 0.33153436403E+01 0.32607015628E+01 0.32607122761E+01
 0.33153523605E+01 0.34062362925E+01 0.34977098927E+01 0.35422397030E+01 0.34844294013E+01
 0.32796674081E+01 0.29262667228E+01 0.24739772536E+01 0.20104612211E+01 0.16335530999E+01
 0.14232167907E+01 0.14232054566E+01 0.16335083232E+01 0.26406877573E+01 0.29999737286E+01
 0.32991459159E+01 0.34844268809E+01 0.35435187405E+01 0.35046688086E+01 0.34131774350E+01
 0.33119520374E+01 0.32365566295E+01 0.32090087703E+01 0.32365569463E+01 0.33119523367E+01
 0.34131772681E+01 0.35046678978E+01 0.35435171991E+01 0.34844251590E+01 0.32991446294E+01
 0.29999732499E+01 0.26406880879E+01 0.23002179240E+01 0.20577529738E+01 0.19701179436E+01
 0.20577523959E+01 0.23002171822E+01 0.31246851164E+01 0.33494673640E+01 0.34952574892E+01
 0.35422272576E+01 0.35046688086E+01 0.34152256420E+01 0.33096213851E+01 0.32205312052E+01
 0.31705496114E+01 0.31705517444E+01 0.32205345878E+01 0.33096214635E+01 0.34152246189E+01
 0.35046748401E+01 0.35422399875E+01 0.34952593249E+01 0.33494412587E+01 0.31246400636E+01
 0.28709814764E+01 0.26525607941E+01 0.25266981377E+01 0.25266982732E+01 0.26525723283E+01
 0.28710168333E+01 0.34087321004E+01 0.35075313098E+01 0.35358328320E+01 0.34977206212E+01
 0.34131774350E+01 0.33096213851E+01 0.32149594696E+01 0.31502711318E+01 0.31274778273E+01
 0.31502714680E+01 0.32149600798E+01 0.33096221259E+01 0.34131781241E+01 0.34977210194E+01
 0.35358327786E+01 0.35075307113E+01 0.34087310368E+01 0.32609387342E+01 0.31052172617E+01
 0.29878044226E+01 0.29442523517E+01 0.29878050825E+01 0.31052183787E+01 0.32609399831E+01
 0.35060500636E+01 0.35177352307E+01 0.34812812264E+01 0.34062506925E+01 0.33119520374E+01
 0.32205312052E+01 0.31502711318E+01 0.31126138278E+01 0.31126110089E+01 0.31502690598E+01
 0.32205342375E+01 0.33119494881E+01 0.34062375333E+01 0.34812771261E+01 0.35177614264E+01
 0.35060955761E+01 0.34489587228E+01 0.33651744408E+01 0.32842131816E+01 0.32349476795E+01
 0.32349581299E+01 0.32842324503E+01 0.33651760674E+01 0.34489279902E+01 0.34804298862E+01
 0.34512683688E+01 0.33922422999E+01 0.33153436403E+01 0.32365566295E+01 0.31705496114E+01
 0.31274778273E+01 0.31126110089E+01 0.31274772951E+01 0.31705488932E+01 0.32365562269E+01
 0.33153439216E+01 0.33922433054E+01 0.34512698072E+01 0.34804312397E+01 0.34765765522E+01
 0.34465423162E+01 0.34047147677E+01 0.33694286032E+01 0.33557435856E+01 0.33694287756E+01
 0.34047148612E+01 0.34465419880E+01 0.34765756543E+01 0.34040069120E+01 0.33684691131E+01
 0.33173728371E+01 0.32607015628E+01 0.32090087703E+01 0.31705517444E+01 0.31502714680E+01
 0.31502690598E+01 0.31705488932E+01 0.32090129420E+01 0.32607112137E+01 0.33173730424E+01
 0.33684460418E+01 0.34039677640E+01 0.34181705331E+01 0.34118927815E+01 0.33923651871E+01
 0.33703978253E+01 0.33562909045E+01 0.33562817709E+01 0.33703750682E+01 0.33923442331E+01
 0.34118939805E+01 0.34181999702E+01 0.33327774651E+01 0.33148309642E+01 0.32887604683E+01
 0.32607122761E+01 0.32365569463E+01 0.32205345878E+01 0.32149600798E+01 0.32205342375E+01
 0.32365562269E+01 0.32607112137E+01 0.32887592138E+01 0.33148298237E+01 0.33327767914E+01
 0.33382849145E+01 0.33307154671E+01 0.33136232971E+01 0.32935773038E+01 0.32778375552E+01
 0.32719118396E+01 0.32778366837E+01 0.32935758973E+01 0.33136219021E+01 0.33307145907E+01
 0.33382848346E+01 0.33046203504E+01 0.33148058995E+01 0.33173729799E+01 0.33153523605E+01
 0.33119523367E+01 0.33096214635E+01 0.33096221259E+01 0.33119494881E+01 0.33153439216E+01
 0.33173730424E+01 0.33148298237E+01 0.33046599562E+01 0.32852437514E+01 0.32574496893E+01
 0.32248494902E+01 0.31929088479E+01 0.31675183146E+01 0.31534907986E+01 0.31534916554E+01
 0.31675255832E+01 0.31929275402E+01 0.32248701786E+01 0.32574511869E+01 0.32852161693E+01
 0.33327776242E+01 0.33684459272E+01 0.33922423651E+01 0.34062362925E+01 0.34131772681E+01
 0.34152246189E+01 0.34131781241E+01 0.34062375333E+01 0.33922433054E+01 0.33684460418E+01
 0.33327767914E+01 0.32852437514E+01 0.32287817571E+01 0.31690231326E+01 0.31130407412E+01
 0.30676944854E+01 0.30383305764E+01 0.30281877604E+01 0.30383303616E+01 0.30676943479E+01
 0.31130410621E+01 0.31690241148E+01 0.32287832159E+01 0.32852451864E+01 0.34040071397E+01
 0.34512973134E+01 0.34812809531E+01 0.34977098927E+01 0.35046678978E+01 0.35046748401E+01
 0.34977210194E+01 0.34812771261E+01 0.34512698072E+01 0.34039677640E+01 0.33382849145E+01
 0.32574496893E+01 0.31690231326E+01 0.30831223570E+01 0.30097984055E+01 0.29569262649E+01
 0.29293976770E+01 0.29294009944E+01 0.29569292826E+01 0.30097891292E+01 0.30830999864E+01
 0.31690030980E+01 0.32574511869E+01 0.33383129336E+01 0.34804300874E+01 0.35177605039E+01
 0.35358321771E+01 0.35422397030E+01 0.35435171991E+01 0.35422399875E+01 0.35358327786E+01
 0.35177614264E+01 0.34804312397E+01 0.34181705331E+01 0.33307154671E+01 0.32248494902E+01
 0.31130407412E+01 0.30097984055E+01 0.29277911465E+01 0.28756372935E+01 0.28578159178E+01
 0.28756378829E+01 0.29277920564E+01 0.30097992186E+01 0.31130410769E+01 0.32248491889E+01
 0.33307145907E+01 0.34181693519E+01 0.35060502385E+01 0.35075012392E+01 0.34952567350E+01
 0.34844294013E+01 0.34844251590E+01 0.34952593249E+01 0.35075307113E+01 0.35060955761E+01
 0.34765765522E+01 0.34118927815E+01 0.33136232971E+01 0.31929088479E+01 0.30676944854E+01
 0.29569262649E+01 0.28756372935E+01 0.28330024754E+01 0.28330008220E+01 0.28756353226E+01
 0.29569291847E+01 0.30677053274E+01 0.31929276267E+01 0.33136423522E+01 0.34118939805E+01
 0.34765471723E+01 0.34087324143E+01 0.33494427825E+01 0.32991456219E+01 0.32796674081E+01
 0.32991446294E+01 0.33494412587E+01 0.34087310368E+01 0.34489587228E+01 0.34465423162E+01
 0.33923651871E+01 0.32935773038E+01 0.31675183146E+01 0.30383305764E+01 0.29293976770E+01
 0.28578159178E+01 0.28330008220E+01 0.28578160493E+01 0.29293977061E+01 0.30383302119E+01
 0.31675174411E+01 0.32935761236E+01 0.33923641986E+01 0.34465419880E+01 0.34489593527E+01
 0.31246858147E+01 0.30000140641E+01 0.29262829383E+01 0.29262667228E+01 0.29999732499E+01
 0.31246400636E+01 0.32609387342E+01 0.33651744408E+01 0.34047147677E+01 0.33703978253E+01
 0.32778375552E+01 0.31534907986E+01 0.30281877604E+01 0.29294009944E+01 0.28756378829E+01
 0.28756353226E+01 0.29293977061E+01 0.30281889829E+01 0.31534915343E+01 0.32778271545E+01
 0.33703754351E+01 0.34046951105E+01 0.33651760674E+01 0.32609679658E+01 0.26406890489E+01
 0.24739777936E+01 0.24133464471E+01 0.24739772536E+01 0.26406880879E+01 0.28709814764E+01
 0.31052172617E+01 0.32842131816E+01 0.33694286032E+01 0.33562909045E+01 0.32719118396E+01
 0.31534916554E+01 0.30383303616E+01 0.29569292826E+01 0.29277920564E+01 0.29569291847E+01
 0.30383302119E+01 0.31534915343E+01 0.32719118653E+01 0.33562911734E+01 0.33694291963E+01
 0.32842140892E+01 0.31052183787E+01 0.28709826370E+01 0.20103930000E+01 0.18479561121E+01
 0.18479940764E+01 0.20104612211E+01 0.23002179240E+01 0.26525607941E+01 0.29878044226E+01
 0.32349476795E+01 0.33557435856E+01 0.33562817709E+01 0.32778366837E+01 0.31675255832E+01
 0.30676943479E+01 0.30097891292E+01 0.30097992186E+01 0.30677053274E+01 0.31675174411E+01
 0.32778271545E+01 0.33562911734E+01 0.33557598676E+01 0.32349584250E+01 0.29878196787E+01