   1   1   1   0
  0.1660753E+02  0.2863783E-09  0.2863783E-09  0.2863783E-09  0.5000000E-15
  1.000000000000000E-004
  CAR 
 Al                                      
     29.50800187     -5.17947056  301      7.12705576      1.00000000
     -5.179  0.0000E+00  0.0000E+00
     -5.064  0.0000E+00  0.0000E+00
     -4.948  0.0000E+00  0.0000E+00
     -4.833 -0.1895E-29 -0.2191E-30
     -4.717 -0.1834E-25 -0.2121E-26
     -4.601 -0.9056E-22 -0.1047E-22
     -4.486 -0.2283E-18 -0.2641E-19
     -4.370 -0.2935E-15 -0.3397E-16
     -4.254 -0.1859E-12 -0.2152E-13
     -4.139 -0.6143E-10 -0.7124E-11
     -4.023 -0.1027E-07 -0.1194E-08
     -3.908 -0.8623E-06 -0.1009E-06
     -3.792 -0.3599E-04 -0.4262E-05
     -3.676 -0.7290E-03 -0.8856E-04
     -3.561 -0.6767E-02 -0.8709E-03
     -3.445 -0.2341E-01 -0.3578E-02
     -3.329  0.1475E-01 -0.1872E-02
     -3.214  0.2543E+00  0.2753E-01
     -3.098  0.5441E+00  0.9044E-01
     -2.983  0.5377E+00  0.1526E+00
     -2.867  0.3640E+00  0.1947E+00
     -2.751  0.2650E+00  0.2253E+00
     -2.636  0.2296E+00  0.2519E+00
     -2.520  0.2085E+00  0.2760E+00
     -2.404  0.1917E+00  0.2982E+00
     -2.289  0.1782E+00  0.3188E+00
     -2.173  0.1672E+00  0.3381E+00
     -2.058  0.1579E+00  0.3564E+00
     -1.942  0.1501E+00  0.3737E+00
     -1.826  0.1433E+00  0.3903E+00
     -1.711  0.1375E+00  0.4062E+00
     -1.595  0.1321E+00  0.4214E+00
     -1.479  0.1277E+00  0.4362E+00
     -1.364  0.1231E+00  0.4504E+00
     -1.248  0.1199E+00  0.4643E+00
     -1.133  0.1155E+00  0.4777E+00
     -1.017  0.1137E+00  0.4908E+00
     -0.901  0.1090E+00  0.5034E+00
     -0.786  0.1083E+00  0.5159E+00
     -0.670  0.1040E+00  0.5280E+00
     -0.554  0.1028E+00  0.5398E+00
     -0.439  0.1010E+00  0.5515E+00
     -0.323  0.9657E-01  0.5627E+00
     -0.208  0.9887E-01  0.5741E+00
     -0.092  0.9221E-01  0.5848E+00
      0.024  0.9400E-01  0.5956E+00
      0.139  0.9222E-01  0.6063E+00
      0.255  0.8716E-01  0.6164E+00
      0.371  0.9095E-01  0.6269E+00
      0.486  0.8638E-01  0.6369E+00
      0.602  0.8344E-01  0.6465E+00
      0.717  0.8756E-01  0.6567E+00
      0.833  0.8241E-01  0.6662E+00
      0.949  0.7850E-01  0.6753E+00
      1.064  0.8700E-01  0.6853E+00
      1.180  0.7667E-01  0.6942E+00
      1.296  0.7594E-01  0.7030E+00
      1.411  0.8501E-01  0.7128E+00
      1.527  0.7254E-01  0.7212E+00
      1.642  0.7409E-01  0.7298E+00
      1.758  0.8130E-01  0.7392E+00
      1.874  0.7198E-01  0.7475E+00
      1.989  0.7006E-01  0.7556E+00
      2.105  0.7823E-01  0.7646E+00
      2.221  0.7230E-01  0.7730E+00
      2.336  0.6588E-01  0.7806E+00
      2.452  0.7606E-01  0.7894E+00
      2.567  0.7083E-01  0.7976E+00
      2.683  0.6423E-01  0.8050E+00
      2.799  0.7448E-01  0.8136E+00
      2.914  0.6437E-01  0.8211E+00
      3.030  0.5233E-01  0.8271E+00
      3.146  0.5581E-01  0.8336E+00
      3.261  0.1331E+00  0.8490E+00
      3.377  0.4071E+00  0.8960E+00
      3.492  0.7295E+00  0.9804E+00
      3.608  0.8329E+00  0.1077E+01
      3.724  0.7060E+00  0.1158E+01
      3.839  0.5533E+00  0.1222E+01
      3.955  0.4501E+00  0.1274E+01
      4.071  0.3839E+00  0.1319E+01
      4.186  0.3733E+00  0.1362E+01
      4.302  0.3632E+00  0.1404E+01
      4.417  0.3273E+00  0.1442E+01
      4.533  0.3070E+00  0.1477E+01
      4.649  0.2997E+00  0.1512E+01
      4.764  0.2932E+00  0.1546E+01
      4.880  0.3354E+00  0.1585E+01
      4.996  0.4656E+00  0.1638E+01
      5.111  0.5661E+00  0.1704E+01
      5.227  0.5154E+00  0.1763E+01
      5.342  0.3993E+00  0.1810E+01
      5.458  0.3413E+00  0.1849E+01
      5.574  0.3530E+00  0.1890E+01
      5.689  0.3422E+00  0.1929E+01
      5.805  0.2954E+00  0.1964E+01
      5.921  0.3812E+00  0.2008E+01
      6.036  0.6432E+00  0.2082E+01
      6.152  0.7725E+00  0.2171E+01
      6.267  0.7292E+00  0.2256E+01
      6.383  0.7750E+00  0.2345E+01
      6.499  0.8853E+00  0.2448E+01
      6.614  0.9856E+00  0.2562E+01
      6.730  0.9677E+00  0.2674E+01
      6.846  0.8378E+00  0.2770E+01
      6.961  0.7931E+00  0.2862E+01
      7.077  0.8474E+00  0.2960E+01
      7.192  0.7127E+00  0.3042E+01
      7.308  0.3927E+00  0.3088E+01
      7.424  0.3400E+00  0.3127E+01
      7.539  0.6135E+00  0.3198E+01
      7.655  0.7455E+00  0.3284E+01
      7.771  0.6102E+00  0.3355E+01
      7.886  0.4992E+00  0.3413E+01
      8.002  0.5652E+00  0.3478E+01
      8.117  0.6793E+00  0.3557E+01
      8.233  0.5761E+00  0.3623E+01
      8.349  0.3333E+00  0.3662E+01
      8.464  0.2288E+00  0.3688E+01
      8.580  0.2229E+00  0.3714E+01
      8.696  0.2068E+00  0.3738E+01
      8.811  0.2393E+00  0.3765E+01
      8.927  0.4076E+00  0.3813E+01
      9.042  0.5544E+00  0.3877E+01
      9.158  0.5295E+00  0.3938E+01
      9.274  0.4310E+00  0.3988E+01
      9.389  0.3723E+00  0.4031E+01
      9.505  0.3612E+00  0.4073E+01
      9.621  0.3631E+00  0.4115E+01
      9.736  0.3539E+00  0.4155E+01
      9.852  0.3385E+00  0.4195E+01
      9.967  0.3156E+00  0.4231E+01
     10.083  0.3244E+00  0.4269E+01
     10.199  0.3473E+00  0.4309E+01
     10.314  0.3191E+00  0.4346E+01
     10.430  0.2830E+00  0.4378E+01
     10.546  0.3041E+00  0.4414E+01
     10.661  0.3376E+00  0.4453E+01
     10.777  0.3034E+00  0.4488E+01
     10.892  0.2736E+00  0.4519E+01
     11.008  0.2940E+00  0.4553E+01
     11.124  0.3036E+00  0.4588E+01
     11.239  0.2998E+00  0.4623E+01
     11.355  0.2881E+00  0.4656E+01
     11.471  0.2684E+00  0.4687E+01
     11.586  0.2794E+00  0.4720E+01
     11.702  0.3040E+00  0.4755E+01
     11.817  0.2781E+00  0.4787E+01
     11.933  0.2658E+00  0.4818E+01
     12.049  0.2844E+00  0.4851E+01
     12.164  0.2657E+00  0.4881E+01
     12.280  0.2740E+00  0.4913E+01
     12.396  0.2943E+00  0.4947E+01
     12.511  0.2639E+00  0.4978E+01
     12.627  0.2567E+00  0.5007E+01
     12.742  0.2785E+00  0.5039E+01
     12.858  0.2746E+00  0.5071E+01
     12.974  0.2714E+00  0.5103E+01
     13.089  0.3122E+00  0.5139E+01
     13.205  0.3722E+00  0.5182E+01
     13.321  0.4645E+00  0.5235E+01
     13.436  0.6348E+00  0.5309E+01
     13.552  0.7049E+00  0.5390E+01
     13.667  0.5742E+00  0.5457E+01
     13.783  0.4379E+00  0.5507E+01
     13.899  0.3897E+00  0.5552E+01
     14.014  0.4145E+00  0.5600E+01
     14.130  0.3928E+00  0.5646E+01
     14.246  0.3450E+00  0.5686E+01
     14.361  0.4226E+00  0.5735E+01
     14.477  0.4943E+00  0.5792E+01
     14.592  0.4494E+00  0.5844E+01
     14.708  0.4307E+00  0.5893E+01
     14.824  0.4287E+00  0.5943E+01
     14.939  0.3809E+00  0.5987E+01
     15.055  0.3627E+00  0.6029E+01
     15.171  0.3753E+00  0.6072E+01
     15.286  0.3788E+00  0.6116E+01
     15.402  0.3718E+00  0.6159E+01
     15.517  0.3455E+00  0.6199E+01
     15.633  0.3209E+00  0.6236E+01
     15.749  0.3238E+00  0.6274E+01
     15.864  0.3477E+00  0.6314E+01
     15.980  0.3736E+00  0.6357E+01
     16.096  0.4266E+00  0.6406E+01
     16.211  0.4686E+00  0.6461E+01
     16.327  0.4958E+00  0.6518E+01
     16.442  0.5271E+00  0.6579E+01
     16.558  0.4831E+00  0.6635E+01
     16.674  0.3891E+00  0.6680E+01
     16.789  0.4173E+00  0.6728E+01
     16.905  0.5915E+00  0.6796E+01
     17.021  0.6785E+00  0.6875E+01
     17.136  0.6296E+00  0.6948E+01
     17.252  0.5603E+00  0.7012E+01
     17.367  0.5252E+00  0.7073E+01
     17.483  0.5026E+00  0.7131E+01
     17.599  0.4955E+00  0.7188E+01
     17.714  0.4979E+00  0.7246E+01
     17.830  0.4677E+00  0.7300E+01
     17.946  0.4642E+00  0.7354E+01
     18.061  0.4704E+00  0.7408E+01
     18.177  0.4644E+00  0.7462E+01
     18.292  0.4312E+00  0.7512E+01
     18.408  0.4077E+00  0.7559E+01
     18.524  0.5719E+00  0.7625E+01
     18.639  0.9436E+00  0.7734E+01
     18.755  0.1115E+01  0.7863E+01
     18.871  0.9736E+00  0.7976E+01
     18.986  0.8887E+00  0.8078E+01
     19.102  0.8478E+00  0.8176E+01
     19.217  0.7664E+00  0.8265E+01
     19.333  0.7271E+00  0.8349E+01
     19.449  0.7479E+00  0.8436E+01
     19.564  0.7991E+00  0.8528E+01
     19.680  0.7894E+00  0.8619E+01
     19.796  0.7532E+00  0.8706E+01
     19.911  0.8322E+00  0.8802E+01
     20.027  0.9132E+00  0.8908E+01
     20.142  0.8552E+00  0.9007E+01
     20.258  0.7903E+00  0.9098E+01
     20.374  0.9210E+00  0.9205E+01
     20.489  0.1165E+01  0.9340E+01
     20.605  0.1130E+01  0.9470E+01
     20.721  0.7790E+00  0.9560E+01
     20.836  0.5226E+00  0.9621E+01
     20.952  0.4927E+00  0.9678E+01
     21.067  0.5085E+00  0.9736E+01
     21.183  0.4817E+00  0.9792E+01
     21.299  0.4583E+00  0.9845E+01
     21.414  0.4518E+00  0.9897E+01
     21.530  0.4944E+00  0.9955E+01
     21.646  0.6512E+00  0.1003E+02
     21.761  0.8991E+00  0.1013E+02
     21.877  0.1110E+01  0.1026E+02
     21.992  0.1088E+01  0.1039E+02
     22.108  0.9067E+00  0.1049E+02
     22.224  0.7957E+00  0.1058E+02
     22.339  0.7294E+00  0.1067E+02
     22.455  0.6961E+00  0.1075E+02
     22.571  0.7005E+00  0.1083E+02
     22.686  0.6081E+00  0.1090E+02
     22.802  0.4792E+00  0.1096E+02
     22.917  0.4446E+00  0.1101E+02
     23.033  0.4673E+00  0.1106E+02
     23.149  0.5001E+00  0.1112E+02
     23.264  0.5112E+00  0.1118E+02
     23.380  0.5360E+00  0.1124E+02
     23.496  0.6840E+00  0.1132E+02
     23.611  0.9577E+00  0.1143E+02
     23.727  0.1073E+01  0.1155E+02
     23.842  0.8454E+00  0.1165E+02
     23.958  0.5393E+00  0.1171E+02
     24.074  0.4023E+00  0.1176E+02
     24.189  0.3220E+00  0.1180E+02
     24.305  0.2000E+00  0.1182E+02
     24.421  0.9234E-01  0.1183E+02
     24.536  0.5727E-01  0.1184E+02
     24.652  0.6483E-01  0.1185E+02
     24.767  0.6498E-01  0.1185E+02
     24.883  0.7981E-01  0.1186E+02
     24.999  0.9626E-01  0.1187E+02
     25.114  0.7521E-01  0.1188E+02
     25.230  0.6902E-01  0.1189E+02
     25.346  0.6646E-01  0.1190E+02
     25.461  0.5996E-01  0.1191E+02
     25.577  0.8164E-01  0.1191E+02
     25.692  0.9093E-01  0.1193E+02
     25.808  0.7500E-01  0.1193E+02
     25.924  0.6695E-01  0.1194E+02
     26.039  0.6673E-01  0.1195E+02
     26.155  0.6635E-01  0.1196E+02
     26.271  0.7004E-01  0.1197E+02
     26.386  0.5889E-01  0.1197E+02
     26.502  0.2551E-01  0.1198E+02
     26.617  0.1007E-01  0.1198E+02
     26.733  0.1970E-01  0.1198E+02
     26.849  0.2106E-01  0.1198E+02
     26.964  0.2757E-01  0.1198E+02
     27.080  0.4323E-01  0.1199E+02
     27.196  0.3245E-01  0.1199E+02
     27.311  0.8694E-02  0.1199E+02
     27.427  0.9711E-02  0.1200E+02
     27.542  0.2358E-01  0.1200E+02
     27.658  0.1780E-01  0.1200E+02
     27.774  0.3115E-02  0.1200E+02
     27.889 -0.1262E-02  0.1200E+02
     28.005 -0.5110E-03  0.1200E+02
     28.121 -0.6355E-04  0.1200E+02
     28.236 -0.3454E-05  0.1200E+02
     28.352 -0.8909E-07  0.1200E+02
     28.467 -0.1126E-08  0.1200E+02
     28.583 -0.7092E-11  0.1200E+02
     28.699 -0.2243E-13  0.1200E+02
     28.814 -0.3601E-16  0.1200E+02
     28.930  0.0000E+00  0.1200E+02
     29.046  0.0000E+00  0.1200E+02
     29.161  0.0000E+00  0.1200E+02
     29.277  0.0000E+00  0.1200E+02
     29.392  0.0000E+00  0.1200E+02
     29.508  0.0000E+00  0.1200E+02
     29.50800187     -5.17947056  301      7.12705576      1.00000000
     -5.179  0.0000E+00  0.0000E+00  0.0000E+00
     -5.064  0.0000E+00  0.0000E+00  0.0000E+00
     -4.948  0.0000E+00  0.0000E+00  0.0000E+00
     -4.833 -0.5194E-30 -0.1690E-33  0.0000E+00
     -4.717 -0.5026E-26 -0.1803E-29  0.0000E+00
     -4.601 -0.2482E-22 -0.9723E-26  0.0000E+00
     -4.486 -0.6256E-19 -0.2696E-22  0.0000E+00
     -4.370 -0.8044E-16 -0.3845E-19  0.0000E+00
     -4.254 -0.5093E-13 -0.2732E-16  0.0000E+00
     -4.139 -0.1683E-10 -0.1024E-13  0.0000E+00
     -4.023 -0.2813E-08 -0.1973E-11  0.0000E+00
     -3.908 -0.2362E-06 -0.1950E-09  0.0000E+00
     -3.792 -0.9857E-05 -0.9859E-08  0.0000E+00
     -3.676 -0.1996E-03 -0.2527E-06  0.0000E+00
     -3.561 -0.1852E-02 -0.3217E-05  0.0000E+00
     -3.445 -0.6399E-02 -0.1905E-04  0.0000E+00
     -3.329  0.4086E-02 -0.3849E-04  0.0000E+00
     -3.214  0.6965E-01  0.7865E-04  0.0000E+00
     -3.098  0.1486E+00  0.5288E-03  0.0000E+00
     -2.983  0.1462E+00  0.1181E-02  0.0000E+00
     -2.867  0.9794E-01  0.1719E-02  0.0000E+00
     -2.751  0.7046E-01  0.2087E-02  0.0000E+00
     -2.636  0.6048E-01  0.2381E-02  0.0000E+00
     -2.520  0.5449E-01  0.2646E-02  0.0000E+00
     -2.404  0.4969E-01  0.2886E-02  0.0000E+00
     -2.289  0.4580E-01  0.3103E-02  0.0000E+00
     -2.173  0.4257E-01  0.3301E-02  0.0000E+00
     -2.058  0.3985E-01  0.3485E-02  0.0000E+00
     -1.942  0.3752E-01  0.3658E-02  0.0000E+00
     -1.826  0.3550E-01  0.3822E-02  0.0000E+00
     -1.711  0.3374E-01  0.3981E-02  0.0000E+00
     -1.595  0.3213E-01  0.4125E-02  0.0000E+00
     -1.479  0.3077E-01  0.4276E-02  0.0000E+00
     -1.364  0.2938E-01  0.4399E-02  0.0000E+00
     -1.248  0.2837E-01  0.4556E-02  0.0000E+00
     -1.133  0.2706E-01  0.4640E-02  0.0000E+00
     -1.017  0.2637E-01  0.4820E-02  0.0000E+00
     -0.901  0.2506E-01  0.4856E-02  0.0000E+00
     -0.786  0.2464E-01  0.5073E-02  0.0000E+00
     -0.670  0.2345E-01  0.5079E-02  0.0000E+00
     -0.554  0.2290E-01  0.5263E-02  0.0000E+00
     -0.439  0.2231E-01  0.5360E-02  0.0000E+00
     -0.323  0.2108E-01  0.5354E-02  0.0000E+00
     -0.208  0.2138E-01  0.5679E-02  0.0000E+00
     -0.092  0.1974E-01  0.5482E-02  0.0000E+00
      0.024  0.1988E-01  0.5811E-02  0.0000E+00
      0.139  0.1933E-01  0.5857E-02  0.0000E+00
      0.255  0.1804E-01  0.5743E-02  0.0000E+00
      0.371  0.1863E-01  0.6171E-02  0.0000E+00
      0.486  0.1751E-01  0.6026E-02  0.0000E+00
      0.602  0.1671E-01  0.6010E-02  0.0000E+00
      0.717  0.1734E-01  0.6490E-02  0.0000E+00
      0.833  0.1616E-01  0.6253E-02  0.0000E+00
      0.949  0.1519E-01  0.6150E-02  0.0000E+00
      1.064  0.1663E-01  0.6990E-02  0.0000E+00
      1.180  0.1452E-01  0.6278E-02  0.0000E+00
      1.296  0.1415E-01  0.6429E-02  0.0000E+00
      1.411  0.1568E-01  0.7360E-02  0.0000E+00
      1.527  0.1324E-01  0.6400E-02  0.0000E+00
      1.642  0.1330E-01  0.6720E-02  0.0000E+00
      1.758  0.1441E-01  0.7546E-02  0.0000E+00
      1.874  0.1262E-01  0.6785E-02  0.0000E+00
      1.989  0.1208E-01  0.6772E-02  0.0000E+00
      2.105  0.1326E-01  0.7767E-02  0.0000E+00
      2.221  0.1214E-01  0.7259E-02  0.0000E+00
      2.336  0.1086E-01  0.6798E-02  0.0000E+00
      2.452  0.1229E-01  0.8072E-02  0.0000E+00
      2.567  0.1134E-01  0.7586E-02  0.0000E+00
      2.683  0.1005E-01  0.7099E-02  0.0000E+00
      2.799  0.1142E-01  0.8472E-02  0.0000E+00
      2.914  0.1004E-01  0.7233E-02  0.0000E+00
      3.030  0.9205E-02  0.5186E-02  0.0000E+00
      3.146  0.9007E-02  0.6114E-02  0.0000E+00
      3.261  0.2121E-02  0.2777E-01  0.0000E+00
      3.377  0.1053E-01  0.8208E-01  0.0000E+00
      3.492  0.7329E-01  0.1098E+00  0.0000E+00
      3.608  0.1442E+00  0.8406E-01  0.0000E+00
      3.724  0.1403E+00  0.5898E-01  0.0000E+00
      3.839  0.9917E-01  0.5375E-01  0.0000E+00
      3.955  0.7247E-01  0.4940E-01  0.0000E+00
      4.071  0.5975E-01  0.4359E-01  0.0000E+00
      4.186  0.5600E-01  0.4405E-01  0.0000E+00
      4.302  0.5247E-01  0.4439E-01  0.0000E+00
      4.417  0.4668E-01  0.4040E-01  0.0000E+00
      4.533  0.4273E-01  0.3880E-01  0.0000E+00
      4.649  0.4047E-01  0.3877E-01  0.0000E+00
      4.764  0.3907E-01  0.3820E-01  0.0000E+00
      4.880  0.3629E-01  0.5122E-01  0.0000E+00
      4.996  0.3160E-01  0.8781E-01  0.0000E+00
      5.111  0.3075E-01  0.1133E+00  0.0000E+00
      5.227  0.3180E-01  0.9935E-01  0.0000E+00
      5.342  0.2778E-01  0.7390E-01  0.0000E+00
      5.458  0.2408E-01  0.6261E-01  0.0000E+00
      5.574  0.2578E-01  0.6359E-01  0.0000E+00
      5.689  0.2552E-01  0.6084E-01  0.0000E+00
      5.805  0.2106E-01  0.5325E-01  0.0000E+00
      5.921  0.1897E-01  0.7545E-01  0.0000E+00
      6.036  0.1719E-01  0.1393E+00  0.0000E+00
      6.152  0.1726E-01  0.1694E+00  0.0000E+00
      6.267  0.4380E-01  0.1354E+00  0.0000E+00
      6.383  0.8893E-01  0.1058E+00  0.0000E+00
      6.499  0.9844E-01  0.1192E+00  0.0000E+00
      6.614  0.7719E-01  0.1545E+00  0.0000E+00
      6.730  0.6164E-01  0.1621E+00  0.0000E+00
      6.846  0.5133E-01  0.1434E+00  0.0000E+00
      6.961  0.3972E-01  0.1442E+00  0.0000E+00
      7.077  0.3258E-01  0.1627E+00  0.0000E+00
      7.192  0.2677E-01  0.1372E+00  0.0000E+00
      7.308  0.2146E-01  0.6986E-01  0.0000E+00
      7.424  0.5975E-01  0.3307E-01  0.0000E+00
      7.539  0.1474E+00  0.3548E-01  0.0000E+00
      7.655  0.1799E+00  0.4255E-01  0.0000E+00
      7.771  0.1347E+00  0.4213E-01  0.0000E+00
      7.886  0.9324E-01  0.4368E-01  0.0000E+00
      8.002  0.7651E-01  0.6116E-01  0.0000E+00
      8.117  0.5918E-01  0.8411E-01  0.0000E+00
      8.233  0.3301E-01  0.7853E-01  0.0000E+00
      8.349  0.1558E-01  0.5046E-01  0.0000E+00
      8.464  0.1331E-01  0.3680E-01  0.0000E+00
      8.580  0.1230E-01  0.3615E-01  0.0000E+00
      8.696  0.7464E-02  0.3456E-01  0.0000E+00
      8.811  0.2457E-01  0.3446E-01  0.0000E+00
      8.927  0.1028E+00  0.3587E-01  0.0000E+00
      9.042  0.1727E+00  0.3628E-01  0.0000E+00
      9.158  0.1515E+00  0.4037E-01  0.0000E+00
      9.274  0.1011E+00  0.4211E-01  0.0000E+00
      9.389  0.7653E-01  0.4114E-01  0.0000E+00
      9.505  0.6894E-01  0.4217E-01  0.0000E+00
      9.621  0.6520E-01  0.4419E-01  0.0000E+00
      9.736  0.6022E-01  0.4480E-01  0.0000E+00
      9.852  0.5463E-01  0.4454E-01  0.0000E+00
      9.967  0.5126E-01  0.4187E-01  0.0000E+00
     10.083  0.4972E-01  0.4390E-01  0.0000E+00
     10.199  0.4843E-01  0.4924E-01  0.0000E+00
     10.314  0.4598E-01  0.4543E-01  0.0000E+00
     10.430  0.4077E-01  0.4046E-01  0.0000E+00
     10.546  0.3926E-01  0.4536E-01  0.0000E+00
     10.661  0.4340E-01  0.5057E-01  0.0000E+00
     10.777  0.3927E-01  0.4560E-01  0.0000E+00
     10.892  0.3277E-01  0.4266E-01  0.0000E+00
     11.008  0.3556E-01  0.4610E-01  0.0000E+00
     11.124  0.3649E-01  0.4766E-01  0.0000E+00
     11.239  0.3222E-01  0.4822E-01  0.0000E+00
     11.355  0.3145E-01  0.4685E-01  0.0000E+00
     11.471  0.3093E-01  0.4399E-01  0.0000E+00
     11.586  0.2861E-01  0.4674E-01  0.0000E+00
     11.702  0.2973E-01  0.5116E-01  0.0000E+00
     11.817  0.2779E-01  0.4714E-01  0.0000E+00
     11.933  0.2661E-01  0.4590E-01  0.0000E+00
     12.049  0.2676E-01  0.4972E-01  0.0000E+00
     12.164  0.2252E-01  0.4711E-01  0.0000E+00
     12.280  0.2462E-01  0.4886E-01  0.0000E+00
     12.396  0.2639E-01  0.5260E-01  0.0000E+00
     12.511  0.2089E-01  0.4841E-01  0.0000E+00
     12.627  0.1957E-01  0.4819E-01  0.0000E+00
     12.742  0.2158E-01  0.5227E-01  0.0000E+00
     12.858  0.2140E-01  0.5258E-01  0.0000E+00
     12.974  0.1886E-01  0.5273E-01  0.0000E+00
     13.089  0.1732E-01  0.5322E-01  0.0000E+00
     13.205  0.1705E-01  0.4967E-01  0.0000E+00
     13.321  0.1620E-01  0.7265E-01  0.0000E+00
     13.436  0.1550E-01  0.1437E+00  0.0000E+00
     13.552  0.1374E-01  0.1829E+00  0.0000E+00
     13.667  0.1251E-01  0.1456E+00  0.0000E+00
     13.783  0.1266E-01  0.1021E+00  0.0000E+00
     13.899  0.1123E-01  0.8660E-01  0.0000E+00
     14.014  0.1190E-01  0.8900E-01  0.0000E+00
     14.130  0.1199E-01  0.8437E-01  0.0000E+00
     14.246  0.9625E-02  0.7781E-01  0.0000E+00
     14.361  0.1017E-01  0.1005E+00  0.0000E+00
     14.477  0.9251E-02  0.1219E+00  0.0000E+00
     14.592  0.6908E-02  0.1123E+00  0.0000E+00
     14.708  0.9307E-02  0.1043E+00  0.0000E+00
     14.824  0.1007E-01  0.1012E+00  0.0000E+00
     14.939  0.6266E-02  0.9009E-01  0.0000E+00
     15.055  0.5768E-02  0.8545E-01  0.0000E+00
     15.171  0.8171E-02  0.8726E-01  0.0000E+00
     15.286  0.8714E-02  0.8669E-01  0.0000E+00
     15.402  0.6715E-02  0.8337E-01  0.0000E+00
     15.517  0.5486E-02  0.7814E-01  0.0000E+00
     15.633  0.6265E-02  0.7481E-01  0.0000E+00
     15.749  0.5614E-02  0.7414E-01  0.0000E+00
     15.864  0.4744E-02  0.7674E-01  0.0000E+00
     15.980  0.9831E-02  0.7791E-01  0.0000E+00
     16.096  0.2333E-01  0.7198E-01  0.0000E+00
     16.211  0.3421E-01  0.6391E-01  0.0000E+00
     16.327  0.3496E-01  0.6876E-01  0.0000E+00
     16.442  0.3182E-01  0.8089E-01  0.0000E+00
     16.558  0.2688E-01  0.7619E-01  0.0000E+00
     16.674  0.2036E-01  0.6193E-01  0.0000E+00
     16.789  0.2674E-01  0.6380E-01  0.0000E+00
     16.905  0.6577E-01  0.7708E-01  0.0000E+00
     17.021  0.1034E+00  0.7303E-01  0.0000E+00
     17.136  0.9456E-01  0.6764E-01  0.0000E+00
     17.252  0.6849E-01  0.7215E-01  0.0000E+00
     17.367  0.5447E-01  0.7320E-01  0.0000E+00
     17.483  0.4808E-01  0.7062E-01  0.0000E+00
     17.599  0.4509E-01  0.7367E-01  0.0000E+00
     17.714  0.4240E-01  0.7707E-01  0.0000E+00
     17.830  0.3862E-01  0.7218E-01  0.0000E+00
     17.946  0.3560E-01  0.7185E-01  0.0000E+00
     18.061  0.3385E-01  0.7490E-01  0.0000E+00
     18.177  0.3304E-01  0.7723E-01  0.0000E+00
     18.292  0.3059E-01  0.7125E-01  0.0000E+00
     18.408  0.2852E-01  0.6398E-01  0.0000E+00
     18.524  0.2753E-01  0.1071E+00  0.0000E+00
     18.639  0.2627E-01  0.2081E+00  0.0000E+00
     18.755  0.2509E-01  0.2594E+00  0.0000E+00
     18.871  0.2323E-01  0.2251E+00  0.0000E+00
     18.986  0.2262E-01  0.2023E+00  0.0000E+00
     19.102  0.2218E-01  0.2130E+00  0.0000E+00
     19.217  0.2044E-01  0.2065E+00  0.0000E+00
     19.333  0.1984E-01  0.1510E+00  0.0000E+00
     19.449  0.1864E-01  0.9941E-01  0.0000E+00
     19.564  0.1816E-01  0.1066E+00  0.0000E+00
     19.680  0.1855E-01  0.1284E+00  0.0000E+00
     19.796  0.1561E-01  0.1267E+00  0.0000E+00
     19.911  0.1273E-01  0.1249E+00  0.0000E+00
     20.027  0.1367E-01  0.1318E+00  0.0000E+00
     20.142  0.1304E-01  0.1274E+00  0.0000E+00
     20.258  0.1224E-01  0.1160E+00  0.0000E+00
     20.374  0.1340E-01  0.1154E+00  0.0000E+00
     20.489  0.1375E-01  0.1125E+00  0.0000E+00
     20.605  0.1380E-01  0.9520E-01  0.0000E+00
     20.721  0.1417E-01  0.8365E-01  0.0000E+00
     20.836  0.1385E-01  0.8393E-01  0.0000E+00
     20.952  0.1462E-01  0.8693E-01  0.0000E+00
     21.067  0.1479E-01  0.8593E-01  0.0000E+00
     21.183  0.1331E-01  0.8255E-01  0.0000E+00
     21.299  0.1287E-01  0.8297E-01  0.0000E+00
     21.414  0.1360E-01  0.8741E-01  0.0000E+00
     21.530  0.1532E-01  0.1065E+00  0.0000E+00
     21.646  0.2194E-01  0.1578E+00  0.0000E+00
     21.761  0.2651E-01  0.2604E+00  0.0000E+00
     21.877  0.2101E-01  0.3896E+00  0.0000E+00
     21.992  0.1380E-01  0.4084E+00  0.0000E+00
     22.108  0.1502E-01  0.3051E+00  0.0000E+00
     22.224  0.2338E-01  0.2135E+00  0.0000E+00
     22.339  0.2804E-01  0.1581E+00  0.0000E+00
     22.455  0.2515E-01  0.1356E+00  0.0000E+00
     22.571  0.1979E-01  0.1445E+00  0.0000E+00
     22.686  0.1331E-01  0.1329E+00  0.0000E+00
     22.802  0.8016E-02  0.1038E+00  0.0000E+00
     22.917  0.6267E-02  0.9541E-01  0.0000E+00
     23.033  0.5421E-02  0.9860E-01  0.0000E+00
     23.149  0.4675E-02  0.9929E-01  0.0000E+00
     23.264  0.3891E-02  0.9819E-01  0.0000E+00
     23.380  0.4345E-02  0.1045E+00  0.0000E+00
     23.496  0.1145E-01  0.1347E+00  0.0000E+00
     23.611  0.2109E-01  0.1817E+00  0.0000E+00
     23.727  0.2051E-01  0.1988E+00  0.0000E+00
     23.842  0.1347E-01  0.1667E+00  0.0000E+00
     23.958  0.8837E-02  0.1190E+00  0.0000E+00
     24.074  0.6426E-02  0.9596E-01  0.0000E+00
     24.189  0.4218E-02  0.7818E-01  0.0000E+00
     24.305  0.2359E-02  0.4332E-01  0.0000E+00
     24.421  0.1142E-02  0.1462E-01  0.0000E+00
     24.536  0.7104E-03  0.6139E-02  0.0000E+00
     24.652  0.6437E-03  0.7163E-02  0.0000E+00
     24.767  0.7239E-03  0.8653E-02  0.0000E+00
     24.883  0.1012E-02  0.1110E-01  0.0000E+00
     24.999  0.1253E-02  0.1374E-01  0.0000E+00
     25.114  0.9521E-03  0.1114E-01  0.0000E+00
     25.230  0.5705E-03  0.8799E-02  0.0000E+00
     25.346  0.4510E-03  0.8007E-02  0.0000E+00
     25.461  0.4608E-03  0.8381E-02  0.0000E+00
     25.577  0.6413E-03  0.1134E-01  0.0000E+00
     25.692  0.7877E-03  0.1303E-01  0.0000E+00
     25.808  0.6002E-03  0.1168E-01  0.0000E+00
     25.924  0.3196E-03  0.9076E-02  0.0000E+00
     26.039  0.2277E-03  0.8273E-02  0.0000E+00
     26.155  0.2281E-03  0.9932E-02  0.0000E+00
     26.271  0.3055E-03  0.1045E-01  0.0000E+00
     26.386  0.3020E-03  0.7116E-02  0.0000E+00
     26.502  0.1346E-03  0.2441E-02  0.0000E+00
     26.617  0.1837E-05 -0.1231E-03  0.0000E+00
     26.733 -0.1885E-04 -0.4212E-03  0.0000E+00
     26.849  0.1324E-04  0.7665E-03  0.0000E+00
     26.964  0.8494E-04  0.3825E-02  0.0000E+00
     27.080  0.1107E-03  0.4958E-02  0.0000E+00
     27.196  0.4733E-04  0.2121E-02  0.0000E+00
     27.311 -0.7804E-06 -0.2005E-04  0.0000E+00
     27.427 -0.4464E-05  0.5724E-04  0.0000E+00
     27.542 -0.5962E-06  0.5349E-03  0.0000E+00
     27.658  0.2090E-06  0.4189E-03  0.0000E+00
     27.774  0.4766E-07  0.7336E-04  0.0000E+00
     27.889 -0.2056E-07 -0.2964E-04  0.0000E+00
     28.005 -0.8305E-08 -0.1200E-04  0.0000E+00
     28.121 -0.1033E-08 -0.1493E-05  0.0000E+00
     28.236 -0.5613E-10 -0.8114E-07  0.0000E+00
     28.352 -0.1448E-11 -0.2093E-08  0.0000E+00
     28.467 -0.1831E-13 -0.2646E-10  0.0000E+00
     28.583 -0.1153E-15 -0.1666E-12  0.0000E+00
     28.699 -0.3646E-18 -0.5270E-15  0.0000E+00
     28.814 -0.5852E-21 -0.8459E-18  0.0000E+00
     28.930  0.0000E+00  0.0000E+00  0.0000E+00
     29.046  0.0000E+00  0.0000E+00  0.0000E+00
     29.161  0.0000E+00  0.0000E+00  0.0000E+00
     29.277  0.0000E+00  0.0000E+00  0.0000E+00
     29.392  0.0000E+00  0.0000E+00  0.0000E+00
     29.508  0.0000E+00  0.0000E+00  0.0000E+00
