    1    1    1    1
  0.1660753E+02  0.2863782E-09  0.2863782E-09  0.2863782E-09  0.5000000E-15
  1.000000000000000E-004
  CAR 
 Al                                      
    3  320    6
 
  0.5000000E+00  0.5000000E+00  0.5000000E+00  0.3125000E-02
   1        3.350670
   2        3.526340
   3       19.191329
   4       19.191329
   5       19.386382
   6       19.386382
 
  0.4967949E+00  0.5064103E+00  0.4967949E+00  0.3125000E-02
   1        3.352730
   2        3.528516
   3       19.046324
   4       19.067752
   5       19.486255
   6       19.513852
 
  0.4935897E+00  0.5128205E+00  0.4935897E+00  0.3125000E-02
   1        3.358909
   2        3.535042
   3       18.800039
   4       18.883764
   5       19.599507
   6       19.709519
 
  0.4903846E+00  0.5192308E+00  0.4903846E+00  0.3125000E-02
   1        3.369208
   2        3.545918
   3       18.517680
   4       18.696739
   5       19.667883
   6       19.916011
 
  0.4871795E+00  0.5256410E+00  0.4871795E+00  0.3125000E-02
   1        3.383627
   2        3.561140
   3       18.211581
   4       18.511729
   5       19.689802
   6       20.128275
 
  0.4839744E+00  0.5320513E+00  0.4839744E+00  0.3125000E-02
   1        3.402164
   2        3.580704
   3       17.888740
   4       18.329847
   5       19.671051
   6       20.345193
 
  0.4807692E+00  0.5384615E+00  0.4807692E+00  0.3125000E-02
   1        3.424821
   2        3.604604
   3       17.554077
   4       18.151475
   5       19.619445
   6       20.566376
 
  0.4775641E+00  0.5448718E+00  0.4775641E+00  0.3125000E-02
   1        3.451594
   2        3.632832
   3       17.211190
   4       17.976779
   5       19.542613
   6       20.791653
 
  0.4743590E+00  0.5512821E+00  0.4743590E+00  0.3125000E-02
   1        3.482485
   2        3.664540
   3       16.862235
   4       17.805500
   5       19.445224
   6       21.019676
 
  0.4711538E+00  0.5576923E+00  0.4711538E+00  0.3125000E-02
   1        3.517491
   2        3.701398
   3       16.510194
   4       17.638372
   5       19.336014
   6       21.252866
 
  0.4679487E+00  0.5641026E+00  0.4679487E+00  0.3125000E-02
   1        3.556617
   2        3.742601
   3       16.159114
   4       17.475075
   5       19.218276
   6       21.489962
 
  0.4647436E+00  0.5705128E+00  0.4647436E+00  0.3125000E-02
   1        3.599845
   2        3.787598
   3       15.803629
   4       17.315624
   5       19.092030
   6       21.730935
 
  0.4615385E+00  0.5769231E+00  0.4615385E+00  0.3125000E-02
   1        3.647186
   2        3.837305
   3       15.448331
   4       17.160029
   5       18.961963
   6       21.975760
 
  0.4583333E+00  0.5833333E+00  0.4583333E+00  0.3125000E-02
   1        3.698634
   2        3.891264
   3       15.093697
   4       17.008296
   5       18.829197
   6       22.224413
 
  0.4551282E+00  0.5897436E+00  0.4551282E+00  0.3125000E-02
   1        3.754270
   2        3.949586
   3       14.740310
   4       16.860430
   5       18.695067
   6       22.476871
 
  0.4519231E+00  0.5961538E+00  0.4519231E+00  0.3125000E-02
   1        3.813928
   2        4.011989
   3       14.388559
   4       16.716431
   5       18.560492
   6       22.733108
 
  0.4487179E+00  0.6025641E+00  0.4487179E+00  0.3125000E-02
   1        3.877679
   2        4.078577
   3       14.038842
   4       16.576300
   5       18.426292
   6       22.993099
 
  0.4455128E+00  0.6089744E+00  0.4455128E+00  0.3125000E-02
   1        3.945520
   2        4.149323
   3       13.691460
   4       16.440038
   5       18.293083
   6       23.256804
 
  0.4423077E+00  0.6153846E+00  0.4423077E+00  0.3125000E-02
   1        4.017444
   2        4.224196
   3       13.346678
   4       16.307644
   5       18.161359
   6       23.524207
 
  0.4391026E+00  0.6217949E+00  0.4391026E+00  0.3125000E-02
   1        4.093454
   2        4.303299
   3       13.004758
   4       16.182100
   5       18.034120
   6       23.812012
 
  0.4358974E+00  0.6282051E+00  0.4358974E+00  0.3125000E-02
   1        4.173515
   2        4.386309
   3       12.665840
   4       16.057232
   5       17.906452
   6       24.087253
 
  0.4326923E+00  0.6346154E+00  0.4326923E+00  0.3125000E-02
   1        4.257489
   2        4.473265
   3       12.330139
   4       15.935894
   5       17.780470
   6       24.364192
 
  0.4294872E+00  0.6410256E+00  0.4294872E+00  0.3125000E-02
   1        4.345613
   2        4.564217
   3       11.997841
   4       15.818782
   5       17.657968
   6       24.646470
 
  0.4262821E+00  0.6474359E+00  0.4262821E+00  0.3125000E-02
   1        4.437744
   2        4.659047
   3       11.669115
   4       15.705537
   5       17.538364
   6       24.932240
 
  0.4230769E+00  0.6538462E+00  0.4230769E+00  0.3125000E-02
   1        4.533856
   2        4.757677
   3       11.344139
   4       15.596157
   5       17.421819
   6       25.221404
 
  0.4198718E+00  0.6602564E+00  0.4198718E+00  0.3125000E-02
   1        4.633909
   2        4.860012
   3       11.023102
   4       15.490639
   5       17.308469
   6       25.513924
 
  0.4166667E+00  0.6666667E+00  0.4166667E+00  0.3125000E-02
   1        4.738184
   2        4.966105
   3       10.707626
   4       15.389279
   5       17.199222
   6       25.813830
 
  0.4134615E+00  0.6730769E+00  0.4134615E+00  0.3125000E-02
   1        4.845834
   2        5.075453
   3       10.394967
   4       15.291419
   5       17.092548
   6       26.119375
 
  0.4102564E+00  0.6794872E+00  0.4102564E+00  0.3125000E-02
   1        4.957319
   2        5.188083
   3       10.087154
   4       15.197435
   5       16.989399
   6       26.169067
 
  0.4070513E+00  0.6858974E+00  0.4070513E+00  0.3125000E-02
   1        5.072371
   2        5.303053
   3        9.784429
   4       15.107087
   5       16.889285
   6       25.941573
 
  0.4038462E+00  0.6923077E+00  0.4038462E+00  0.3125000E-02
   1        5.190769
   2        5.421472
   3        9.487444
   4       15.020803
   5       16.793341
   6       25.707197
 
  0.4006410E+00  0.6987179E+00  0.4006410E+00  0.3125000E-02
   1        5.311914
   2        5.542224
   3        9.195807
   4       14.938367
   5       16.699377
   6       25.461445
 
  0.3974359E+00  0.7051282E+00  0.3974359E+00  0.3125000E-02
   1        5.435915
   2        5.664864
   3        8.912803
   4       14.860880
   5       16.610824
   6       25.220965
 
  0.3942308E+00  0.7115385E+00  0.3942308E+00  0.3125000E-02
   1        5.561119
   2        5.788756
   3        8.638906
   4       14.786052
   5       16.526041
   6       24.977709
 
  0.3910256E+00  0.7179487E+00  0.3910256E+00  0.3125000E-02
   1        5.685870
   2        5.913233
   3        8.376667
   4       14.715069
   5       16.445060
   6       24.734329
 
  0.3878205E+00  0.7243590E+00  0.3878205E+00  0.3125000E-02
   1        5.806562
   2        6.037813
   3        8.130181
   4       14.647929
   5       16.367909
   6       24.491604
 
  0.3846154E+00  0.7307692E+00  0.3846154E+00  0.3125000E-02
   1        5.916111
   2        6.162861
   3        7.906161
   4       14.584630
   5       16.294607
   6       24.250120
 
  0.3814103E+00  0.7371795E+00  0.3814103E+00  0.3125000E-02
   1        6.001571
   2        6.290520
   3        7.715416
   4       14.525170
   5       16.225170
   6       24.010330
 
  0.3782051E+00  0.7435897E+00  0.3782051E+00  0.3125000E-02
   1        6.043917
   2        6.424321
   3        7.573433
   4       14.469546
   5       16.159607
   6       23.772598
 
  0.3750000E+00  0.7500000E+00  0.3750000E+00  0.3125000E-02
   1        6.024846
   2        6.566671
   3        7.496100
   4       14.417758
   5       16.097921
   6       23.537229
 
  0.3750000E+00  0.7500000E+00  0.3750000E+00  0.3125000E-02
   1        6.024846
   2        6.566671
   3        7.496100
   4       14.417758
   5       16.097921
   6       23.537229
 
  0.3717949E+00  0.7500000E+00  0.3782051E+00  0.3125000E-02
   1        6.025528
   2        6.567312
   3        7.496778
   4       14.392933
   5       16.123871
   6       23.537844
 
  0.3685897E+00  0.7500000E+00  0.3814103E+00  0.3125000E-02
   1        6.027574
   2        6.569235
   3        7.498814
   4       14.322585
   5       16.197596
   6       23.539688
 
  0.3653846E+00  0.7500000E+00  0.3846154E+00  0.3125000E-02
   1        6.030983
   2        6.572438
   3        7.502204
   4       14.216327
   5       16.309481
   6       23.542759
 
  0.3621795E+00  0.7500000E+00  0.3878205E+00  0.3125000E-02
   1        6.035980
   2        6.577120
   3        7.507045
   4       14.084460
   5       16.450080
   6       23.548180
 
  0.3589744E+00  0.7500000E+00  0.3910256E+00  0.3125000E-02
   1        6.042111
   2        6.582879
   3        7.513136
   4       13.935046
   5       16.609641
   6       23.553684
 
  0.3557692E+00  0.7500000E+00  0.3942308E+00  0.3125000E-02
   1        6.049607
   2        6.589909
   3        7.520573
   4       13.773936
   5       16.783148
   6       23.560407
 
  0.3525641E+00  0.7500000E+00  0.3974359E+00  0.3125000E-02
   1        6.058466
   2        6.598204
   3        7.529350
   4       13.605014
   5       16.966714
   6       23.568346
 
  0.3493590E+00  0.7500000E+00  0.4006410E+00  0.3125000E-02
   1        6.068690
   2        6.607757
   3        7.539460
   4       13.430886
   5       17.157735
   6       23.577495
 
  0.3461538E+00  0.7500000E+00  0.4038462E+00  0.3125000E-02
   1        6.080278
   2        6.618560
   3        7.550895
   4       13.253318
   5       17.354445
   6       23.587850
 
  0.3429487E+00  0.7500000E+00  0.4070513E+00  0.3125000E-02
   1        6.093231
   2        6.630604
   3        7.563645
   4       13.073534
   5       17.555618
   6       23.599401
 
  0.3397436E+00  0.7500000E+00  0.4102564E+00  0.3125000E-02
   1        6.107547
   2        6.643877
   3        7.577700
   4       12.892406
   5       17.760388
   6       23.612140
 
  0.3365385E+00  0.7500000E+00  0.4134615E+00  0.3125000E-02
   1        6.123229
   2        6.658365
   3        7.593045
   4       12.710573
   5       17.968119
   6       23.626059
 
  0.3333333E+00  0.7500000E+00  0.4166667E+00  0.3125000E-02
   1        6.140275
   2        6.674054
   3        7.609667
   4       12.528515
   5       18.178333
   6       23.641143
 
  0.3301282E+00  0.7500000E+00  0.4198718E+00  0.3125000E-02
   1        6.158686
   2        6.690924
   3        7.627546
   4       12.346605
   5       18.390662
   6       23.657381
 
  0.3269231E+00  0.7500000E+00  0.4230769E+00  0.3125000E-02
   1        6.178463
   2        6.708953
   3        7.646661
   4       12.165145
   5       18.604812
   6       23.674755
 
  0.3237179E+00  0.7500000E+00  0.4262821E+00  0.3125000E-02
   1        6.199604
   2        6.728117
   3        7.666987
   4       11.984384
   5       18.820542
   6       23.693246
 
  0.3205128E+00  0.7500000E+00  0.4294872E+00  0.3125000E-02
   1        6.222111
   2        6.748383
   3        7.688493
   4       11.804540
   5       19.037649
   6       23.712832
 
  0.3173077E+00  0.7500000E+00  0.4326923E+00  0.3125000E-02
   1        6.245984
   2        6.769717
   3        7.711145
   4       11.625810
   5       19.255954
   6       23.733485
 
  0.3141026E+00  0.7500000E+00  0.4358974E+00  0.3125000E-02
   1        6.270943
   2        6.791890
   3        7.734571
   4       11.447954
   5       19.475174
   6       23.751999
 
  0.3108974E+00  0.7500000E+00  0.4391026E+00  0.3125000E-02
   1        6.297547
   2        6.815222
   3        7.759380
   4       11.272015
   5       19.695404
   6       23.774677
 
  0.3076923E+00  0.7500000E+00  0.4423077E+00  0.3125000E-02
   1        6.325534
   2        6.839623
   3        7.785391
   4       11.097849
   5       19.916406
   6       23.799853
 
  0.3044872E+00  0.7500000E+00  0.4455128E+00  0.3125000E-02
   1        6.354873
   2        6.864694
   3        7.812102
   4       10.925465
   5       20.137949
   6       23.824385
 
  0.3012821E+00  0.7500000E+00  0.4487179E+00  0.3125000E-02
   1        6.385580
   2        6.890505
   3        7.839633
   4       10.755199
   5       20.359919
   6       23.849756
 
  0.2980769E+00  0.7500000E+00  0.4519231E+00  0.3125000E-02
   1        6.417653
   2        6.916942
   3        7.867867
   4       10.587324
   5       20.582149
   6       23.875888
 
  0.2948718E+00  0.7500000E+00  0.4551282E+00  0.3125000E-02
   1        6.451093
   2        6.943861
   3        7.896659
   4       10.422163
   5       20.804458
   6       23.902683
 
  0.2916667E+00  0.7500000E+00  0.4583333E+00  0.3125000E-02
   1        6.485426
   2        6.970768
   3        7.925572
   4       10.259324
   5       21.022339
   6       23.929435
 
  0.2884615E+00  0.7500000E+00  0.4615385E+00  0.3125000E-02
   1        6.521571
   2        6.998065
   3        7.955125
   4       10.101391
   5       21.244960
   6       23.957212
 
  0.2852564E+00  0.7500000E+00  0.4647436E+00  0.3125000E-02
   1        6.559081
   2        7.025136
   3        7.984235
   4        9.947144
   5       21.466183
   6       23.985153
 
  0.2820513E+00  0.7500000E+00  0.4679487E+00  0.3125000E-02
   1        6.597959
   2        7.051614
   3        8.012765
   4        9.797916
   5       21.686490
   6       24.013065
 
  0.2788462E+00  0.7500000E+00  0.4711538E+00  0.3125000E-02
   1        6.638203
   2        7.077009
   3        8.040191
   4        9.654737
   5       21.905515
   6       24.040663
 
  0.2756410E+00  0.7500000E+00  0.4743590E+00  0.3125000E-02
   1        6.679815
   2        7.100673
   3        8.065835
   4        9.518944
   5       22.122818
   6       24.067583
 
  0.2724359E+00  0.7500000E+00  0.4775641E+00  0.3125000E-02
   1        6.722795
   2        7.121754
   3        8.088843
   4        9.392255
   5       22.337866
   6       24.093347
 
  0.2692308E+00  0.7500000E+00  0.4807692E+00  0.3125000E-02
   1        6.767142
   2        7.139132
   3        8.108189
   4        9.276826
   5       22.550008
   6       24.117425
 
  0.2660256E+00  0.7500000E+00  0.4839744E+00  0.3125000E-02
   1        6.812858
   2        7.151347
   3        8.122785
   4        9.175214
   5       22.758439
   6       24.139124
 
  0.2628205E+00  0.7500000E+00  0.4871795E+00  0.3125000E-02
   1        6.859943
   2        7.156551
   3        8.131752
   4        9.090152
   5       22.962161
   6       24.157652
 
  0.2596154E+00  0.7500000E+00  0.4903846E+00  0.3125000E-02
   1        6.908396
   2        7.152523
   3        8.134931
   4        9.024021
   5       23.159905
   6       24.172495
 
  0.2564103E+00  0.7500000E+00  0.4935897E+00  0.3125000E-02
   1        6.958218
   2        7.136826
   3        8.133463
   4        8.978123
   5       23.350005
   6       24.012826
 
  0.2532051E+00  0.7500000E+00  0.4967949E+00  0.3125000E-02
   1        7.009410
   2        7.107178
   3        8.129986
   4        8.952110
   5       23.530131
   6       23.853954
 
  0.2500000E+00  0.7500000E+00  0.5000000E+00  0.3125000E-02
   1        7.061970
   2        7.061974
   3        8.128043
   4        8.944048
   5       23.696275
   6       23.696368
 
  0.2500000E+00  0.7500000E+00  0.5000000E+00  0.3125000E-02
   1        7.061970
   2        7.061974
   3        8.128043
   4        8.944048
   5       23.696275
   6       23.696350
 
  0.2435897E+00  0.7307692E+00  0.4871795E+00  0.3125000E-02
   1        6.835452
   2        7.175305
   3        8.208901
   4        9.002904
   5       23.388380
   6       23.819222
 
  0.2371795E+00  0.7115385E+00  0.4743590E+00  0.3125000E-02
   1        6.454571
   2        7.302322
   3        8.401057
   4        9.144212
   5       23.092994
   6       23.736778
 
  0.2307692E+00  0.6923077E+00  0.4615385E+00  0.3125000E-02
   1        6.015862
   2        7.443033
   3        8.630538
   4        9.345393
   5       22.810248
   6       23.617868
 
  0.2243590E+00  0.6730769E+00  0.4487179E+00  0.3125000E-02
   1        5.559449
   2        7.597765
   3        8.864644
   4        9.600532
   5       22.541961
   6       23.492572
 
  0.2179487E+00  0.6538462E+00  0.4358974E+00  0.3125000E-02
   1        5.099952
   2        7.765808
   3        9.091687
   4        9.902791
   5       22.285320
   6       23.358559
 
  0.2115385E+00  0.6346154E+00  0.4230769E+00  0.3125000E-02
   1        4.644750
   2        7.947638
   3        9.315678
   4       10.243542
   5       22.040998
   6       23.221222
 
  0.2051282E+00  0.6153846E+00  0.4102564E+00  0.3125000E-02
   1        4.197246
   2        8.143202
   3        9.540896
   4       10.614585
   5       21.809814
   6       23.081887
 
  0.1987179E+00  0.5961538E+00  0.3974359E+00  0.3125000E-02
   1        3.759364
   2        8.352493
   3        9.771026
   4       11.009718
   5       21.591639
   6       22.942095
 
  0.1923077E+00  0.5769231E+00  0.3846154E+00  0.3125000E-02
   1        3.332270
   2        8.575524
   3       10.008867
   4       11.424983
   5       21.386590
   6       22.803624
 
  0.1858974E+00  0.5576923E+00  0.3717949E+00  0.3125000E-02
   1        2.916756
   2        8.812291
   3       10.255912
   4       11.857714
   5       21.191358
   6       22.668153
 
  0.1794872E+00  0.5384615E+00  0.3589744E+00  0.3125000E-02
   1        2.513030
   2        9.062793
   3       10.513261
   4       12.306469
   5       21.012415
   6       22.537340
 
  0.1730769E+00  0.5192308E+00  0.3461538E+00  0.3125000E-02
   1        2.121693
   2        9.326804
   3       10.781057
   4       12.768689
   5       20.846307
   6       22.411088
 
  0.1666667E+00  0.5000000E+00  0.3333333E+00  0.3125000E-02
   1        1.743641
   2        9.604771
   3       11.059954
   4       13.245908
   5       20.693648
   6       22.293713
 
  0.1602564E+00  0.4807692E+00  0.3205128E+00  0.3125000E-02
   1        1.378634
   2        9.896476
   3       11.349828
   4       13.736389
   5       20.554131
   6       22.184538
 
  0.1538462E+00  0.4615385E+00  0.3076923E+00  0.3125000E-02
   1        1.026875
   2       10.201910
   3       11.650624
   4       14.239602
   5       20.427733
   6       22.084293
 
  0.1474359E+00  0.4423077E+00  0.2948718E+00  0.3125000E-02
   1        0.688530
   2       10.521051
   3       11.962198
   4       14.755095
   5       20.314421
   6       21.993550
 
  0.1410256E+00  0.4230769E+00  0.2820513E+00  0.3125000E-02
   1        0.363515
   2       10.853886
   3       12.284302
   4       15.281777
   5       20.214152
   6       21.911372
 
  0.1346154E+00  0.4038462E+00  0.2692308E+00  0.3125000E-02
   1        0.052405
   2       11.200390
   3       12.616767
   4       15.820462
   5       20.126868
   6       21.840803
 
  0.1282051E+00  0.3846154E+00  0.2564103E+00  0.3125000E-02
   1       -0.244906
   2       11.560527
   3       12.959263
   4       16.370119
   5       20.052498
   6       21.780781
 
  0.1217949E+00  0.3653846E+00  0.2435897E+00  0.3125000E-02
   1       -0.528294
   2       11.934248
   3       13.311531
   4       16.930227
   5       19.990955
   6       21.731643
 
  0.1153846E+00  0.3461538E+00  0.2307692E+00  0.3125000E-02
   1       -0.797711
   2       12.321489
   3       13.673056
   4       17.500088
   5       19.942127
   6       21.693396
 
  0.1089744E+00  0.3269231E+00  0.2179487E+00  0.3125000E-02
   1       -1.053063
   2       12.722167
   3       14.043471
   4       18.078851
   5       19.905881
   6       21.666462
 
  0.1025641E+00  0.3076923E+00  0.2051282E+00  0.3125000E-02
   1       -1.294253
   2       13.136175
   3       14.422304
   4       18.665200
   5       19.882050
   6       21.651438
 
  0.9615385E-01  0.2884615E+00  0.1923077E+00  0.3125000E-02
   1       -1.521199
   2       13.563364
   3       14.809024
   4       19.256906
   5       19.870424
   6       21.649659
 
  0.8974359E-01  0.2692308E+00  0.1794872E+00  0.3125000E-02
   1       -1.733829
   2       14.003569
   3       15.203080
   4       19.849481
   5       19.870745
   6       21.664492
 
  0.8333333E-01  0.2500000E+00  0.1666667E+00  0.3125000E-02
   1       -1.932225
   2       14.453299
   3       15.602448
   4       19.880188
   5       20.428520
   6       21.705742
 
  0.7692308E-01  0.2307692E+00  0.1538462E+00  0.3125000E-02
   1       -2.116057
   2       14.918455
   3       16.009093
   4       19.903122
   5       20.962744
   6       21.809094
 
  0.7051282E-01  0.2115385E+00  0.1410256E+00  0.3125000E-02
   1       -2.285330
   2       15.396605
   3       16.423459
   4       19.947333
   5       21.338442
   6       22.088755
 
  0.6410256E-01  0.1923077E+00  0.1282051E+00  0.3125000E-02
   1       -2.440187
   2       15.883718
   3       16.838133
   4       19.990283
   5       21.506134
   6       22.579985
 
  0.5769231E-01  0.1730769E+00  0.1153846E+00  0.3125000E-02
   1       -2.580356
   2       16.383122
   3       17.257702
   4       20.042978
   5       21.588246
   6       23.162979
 
  0.5128205E-01  0.1538462E+00  0.1025641E+00  0.3125000E-02
   1       -2.706001
   2       16.890385
   3       17.677640
   4       20.103274
   5       21.645406
   6       23.770645
 
  0.4487179E-01  0.1346154E+00  0.8974359E-01  0.3125000E-02
   1       -2.816863
   2       17.407599
   3       18.099971
   4       20.170005
   5       21.693646
   6       23.691150
 
  0.3846154E-01  0.1153846E+00  0.7692308E-01  0.3125000E-02
   1       -2.913010
   2       17.930933
   3       18.521368
   4       20.240835
   5       21.737028
   6       23.410189
 
  0.3205128E-01  0.9615385E-01  0.6410256E-01  0.3125000E-02
   1       -2.994412
   2       18.457027
   3       18.939376
   4       20.312939
   5       21.776185
   6       23.132186
 
  0.2564103E-01  0.7692308E-01  0.5128205E-01  0.3125000E-02
   1       -3.061026
   2       18.981124
   3       19.350447
   4       20.383260
   5       21.810587
   6       22.856534
 
  0.1923077E-01  0.5769231E-01  0.3846154E-01  0.3125000E-02
   1       -3.112818
   2       19.500636
   3       19.751991
   4       20.447289
   5       21.839305
   6       22.574932
 
  0.1282051E-01  0.3846154E-01  0.2564103E-01  0.3125000E-02
   1       -3.149840
   2       19.978976
   3       20.119756
   4       20.497999
   5       21.861076
   6       22.283430
 
  0.6410256E-02  0.1923077E-01  0.1282051E-01  0.3125000E-02
   1       -3.172068
   2       20.370512
   3       20.415887
   4       20.531020
   5       21.874247
   6       22.003065
 
  0.0000000E+00  0.0000000E+00  0.0000000E+00  0.3125000E-02
   1       -3.179471
   2       20.542536
   3       20.542540
   4       20.542540
   5       21.878642
   6       21.878705
 
  0.0000000E+00  0.0000000E+00  0.0000000E+00  0.3125000E-02
   1       -3.179471
   2       20.542536
   3       20.542540
   4       20.542540
   5       21.878642
   6       21.878690
 
  0.0000000E+00  0.1282051E-01  0.1282051E-01  0.3125000E-02
   1       -3.173550
   2       20.440323
   3       20.440324
   4       20.492073
   5       21.864000
   6       21.989686
 
  0.0000000E+00  0.2564103E-01  0.2564103E-01  0.3125000E-02
   1       -3.155768
   2       20.198049
   3       20.198056
   4       20.349672
   5       21.820465
   6       22.258398
 
  0.0000000E+00  0.3846154E-01  0.3846154E-01  0.3125000E-02
   1       -3.126128
   2       19.897974
   3       19.897985
   4       20.136385
   5       21.749445
   6       22.602348
 
  0.0000000E+00  0.5128205E-01  0.5128205E-01  0.3125000E-02
   1       -3.084692
   2       19.576020
   3       19.576034
   4       19.874540
   5       21.651853
   6       22.982302
 
  0.0000000E+00  0.6410256E-01  0.6410256E-01  0.3125000E-02
   1       -3.031359
   2       19.251246
   3       19.251263
   4       19.582740
   5       21.532509
   6       23.385083
 
  0.0000000E+00  0.7692308E-01  0.7692308E-01  0.3125000E-02
   1       -2.966296
   2       18.922578
   3       18.922593
   4       19.260819
   5       21.393265
   6       23.796728
 
  0.0000000E+00  0.8974359E-01  0.8974359E-01  0.3125000E-02
   1       -2.889346
   2       18.604929
   3       18.604945
   4       18.943055
   5       21.237224
   6       24.224776
 
  0.0000000E+00  0.1025641E+00  0.1025641E+00  0.3125000E-02
   1       -2.800604
   2       18.294005
   3       18.294023
   4       18.622469
   5       21.067207
   6       23.698332
 
  0.0000000E+00  0.1153846E+00  0.1153846E+00  0.3125000E-02
   1       -2.700095
   2       17.990889
   3       17.990907
   4       18.302984
   5       20.885837
   6       23.037249
 
  0.0000000E+00  0.1282051E+00  0.1282051E+00  0.3125000E-02
   1       -2.587843
   2       17.696266
   3       17.696285
   4       17.987303
   5       20.695333
   6       22.371414
 
  0.0000000E+00  0.1410256E+00  0.1410256E+00  0.3125000E-02
   1       -2.463703
   2       17.413811
   3       17.413831
   4       17.678099
   5       20.497149
   6       21.711085
 
  0.0000000E+00  0.1538462E+00  0.1538462E+00  0.3125000E-02
   1       -2.328059
   2       17.137059
   3       17.137079
   4       17.375135
   5       20.290398
   6       21.049389
 
  0.0000000E+00  0.1666667E+00  0.1666667E+00  0.3125000E-02
   1       -2.180765
   2       16.869836
   3       16.869857
   4       17.080262
   5       20.058920
   6       20.412628
 
  0.0000000E+00  0.1794872E+00  0.1794872E+00  0.3125000E-02
   1       -2.021857
   2       16.612302
   3       16.612323
   4       16.794227
   5       19.639146
   6       19.967341
 
  0.0000000E+00  0.1923077E+00  0.1923077E+00  0.3125000E-02
   1       -1.851377
   2       16.364578
   3       16.364600
   4       16.517600
   5       19.015841
   6       19.731251
 
  0.0000000E+00  0.2051282E+00  0.2051282E+00  0.3125000E-02
   1       -1.669390
   2       16.126752
   3       16.126774
   4       16.250820
   5       18.371802
   6       19.523632
 
  0.0000000E+00  0.2179487E+00  0.2179487E+00  0.3125000E-02
   1       -1.475922
   2       15.898886
   3       15.898908
   4       15.994231
   5       17.729260
   6       19.324005
 
  0.0000000E+00  0.2307692E+00  0.2307692E+00  0.3125000E-02
   1       -1.271023
   2       15.681042
   3       15.681064
   4       15.748106
   5       17.092024
   6       19.130066
 
  0.0000000E+00  0.2435897E+00  0.2435897E+00  0.3125000E-02
   1       -1.054749
   2       15.473259
   3       15.473282
   4       15.512665
   5       16.461464
   6       18.941724
 
  0.0000000E+00  0.2564103E+00  0.2564103E+00  0.3125000E-02
   1       -0.826986
   2       15.278248
   3       15.278273
   4       15.294861
   5       15.838346
   6       18.759677
 
  0.0000000E+00  0.2692308E+00  0.2692308E+00  0.3125000E-02
   1       -0.588181
   2       15.077018
   3       15.090303
   4       15.090327
   5       15.219355
   6       18.580315
 
  0.0000000E+00  0.2820513E+00  0.2820513E+00  0.3125000E-02
   1       -0.338187
   2       14.612807
   3       14.874404
   4       14.912579
   5       14.912604
   6       18.411209
 
  0.0000000E+00  0.2948718E+00  0.2948718E+00  0.3125000E-02
   1       -0.077096
   2       14.014878
   3       14.683027
   4       14.745015
   5       14.745041
   6       18.249532
 
  0.0000000E+00  0.3076923E+00  0.3076923E+00  0.3125000E-02
   1        0.195002
   2       13.425821
   3       14.502968
   4       14.587620
   5       14.587645
   6       18.095724
 
  0.0000000E+00  0.3205128E+00  0.3205128E+00  0.3125000E-02
   1        0.478004
   2       12.845893
   3       14.334296
   4       14.440397
   5       14.440422
   6       17.950185
 
  0.0000000E+00  0.3333333E+00  0.3333333E+00  0.3125000E-02
   1        0.771771
   2       12.275334
   3       14.177070
   4       14.303348
   5       14.303373
   6       17.813274
 
  0.0000000E+00  0.3461538E+00  0.3461538E+00  0.3125000E-02
   1        1.076182
   2       11.714379
   3       14.031338
   4       14.176474
   5       14.176500
   6       17.685318
 
  0.0000000E+00  0.3589744E+00  0.3589744E+00  0.3125000E-02
   1        1.391804
   2       11.166133
   3       13.897144
   4       14.060311
   5       14.060337
   6       17.568854
 
  0.0000000E+00  0.3717949E+00  0.3717949E+00  0.3125000E-02
   1        1.716979
   2       10.624855
   3       13.774521
   4       13.953701
   5       13.953727
   6       17.459730
 
  0.0000000E+00  0.3846154E+00  0.3846154E+00  0.3125000E-02
   1        2.052101
   2       10.094100
   3       13.663501
   4       13.857271
   5       13.857296
   6       17.360341
 
  0.0000000E+00  0.3974359E+00  0.3974359E+00  0.3125000E-02
   1        2.396736
   2        9.574327
   3       13.564110
   4       13.771016
   5       13.771042
   6       17.270893
 
  0.0000000E+00  0.4102564E+00  0.4102564E+00  0.3125000E-02
   1        2.750279
   2        9.066162
   3       13.476369
   4       13.694926
   5       13.694952
   6       17.191562
 
  0.0000000E+00  0.4230769E+00  0.4230769E+00  0.3125000E-02
   1        3.111806
   2        8.570623
   3       13.400296
   4       13.629020
   5       13.629045
   6       17.122506
 
  0.0000000E+00  0.4358974E+00  0.4358974E+00  0.3125000E-02
   1        3.479678
   2        8.089317
   3       13.335907
   4       13.573270
   5       13.573296
   6       17.063861
 
  0.0000000E+00  0.4487179E+00  0.4487179E+00  0.3125000E-02
   1        3.850807
   2        7.624166
   3       13.283213
   4       13.527674
   5       13.527700
   6       17.014075
 
  0.0000000E+00  0.4615385E+00  0.4615385E+00  0.3125000E-02
   1        4.219083
   2        7.183691
   3       13.242226
   4       13.492231
   5       13.492257
   6       16.976510
 
  0.0000000E+00  0.4743590E+00  0.4743590E+00  0.3125000E-02
   1        4.569490
   2        6.781719
   3       13.212951