       N       E                     dE             d eps       ncg     rms          rms(c)
DAV:   1    -0.296399501146E+01   -0.29640E+01   -0.54354E+02  5076   0.126E+02
DAV:   2    -0.339905630616E+01   -0.43506E+00   -0.40865E+00  5298   0.128E+01
DAV:   3    -0.340082437275E+01   -0.17681E-02   -0.17663E-02  4902   0.730E-01
DAV:   4    -0.340082606521E+01   -0.16925E-05   -0.16925E-05  5304   0.205E-02
DAV:   5    -0.340082606754E+01   -0.23268E-08   -0.25060E-08  4782   0.627E-04
DAV:   6    -0.340082606677E+01    0.76598E-09   -0.47493E-10  4794   0.581E-05
   1 F= -.34008261E+01 E0= -.34003892E+01  d E =-.131067E-02
