 vasp.5.3.2 13Sep12 (build Jun 30 2016 14:08:18) complex                        
  
 executed on             LinuxIFC date 2017.11.06  18:56:16
 running on    2 total cores
 distrk:  each k-point on    2 cores,    1 groups
 distr:  one band on NCORES_PER_BAND=   1 cores,    2 groups


--------------------------------------------------------------------------------------------------------


 INCAR:
 POTCAR:    PAW Al                                
 POTCAR:    PAW Al                                
   VRHFIN =Al: s2p1                                                             
   LEXCH  = 91                                                                  
   EATOM  =    53.6910 eV,    3.9462 Ry                                         
                                                                                
   TITEL  = PAW Al                                                              
   LULTRA =        F    use ultrasoft PP ?                                      
   IUNSCR =        1    unscreen: 0-lin 1-nonlin 2-no                           
   RPACOR =    1.500    partial core radius                                     
   POMASS =   26.982; ZVAL   =    3.000    mass and valenz                      
   RCORE  =    1.900    outmost cutoff radius                                   
   RWIGS  =    2.650; RWIGS  =    1.402    wigner-seitz radius (au A)           
   ENMAX  =  240.437; ENMIN  =  180.327 eV                                      
   ICORE  =        2    local potential                                         
   LCOR   =        T    correct aug charges                                     
   LPAW   =        T    paw PP                                                  
   EAUG   =  291.052                                                            
   DEXC   =    -.017                                                            
   RMAX   =    2.974    core radius for proj-oper                               
   RAUG   =    1.300    factor for augmentation sphere                          
   RDEP   =    1.966    core radius for depl-charge                             
   QCUT   =   -4.204; QGAM   =    8.408    optimization parameters              
                                                                                
   Description                                                                  
     l     E      TYP  RCUT    TYP  RCUT                                        
     0   .000     23  1.900                                                     
     0   .000     23  1.900                                                     
     1   .000     23  1.900                                                     
     1  1.000     23  1.900                                                     
     2   .000      7  1.900                                                     
  local pseudopotential read in
  partial core-charges read in
  atomic valenz-charges read in
  non local Contribution for L=           0  read in
    real space projection operators read in
  non local Contribution for L=           0  read in
    real space projection operators read in
  non local Contribution for L=           1  read in
    real space projection operators read in
  non local Contribution for L=           1  read in
    real space projection operators read in
    PAW grid and wavefunctions read in
 
   number of l-projection  operators is LMAX  =           4
   number of lm-projection operators is LMMAX =           8
 
  PAW Al                                :
 energy of atom  1       EATOM=  -53.6910
 kinetic energy error for atom=    0.0030 (will be added to EATOM!!)
 
 
 POSCAR: Al                                      
  positions in direct lattice
  No initial velocities read in
 exchange correlation table for  LEXCH =        7
   RHO(1)=    0.500       N(1)  =     2000
   RHO(2)=  100.500       N(2)  =     4000
 


--------------------------------------------------------------------------------------------------------


 ion  position               nearest neighbor table
   1  0.000  0.000  0.000-
 
  LATTYP: Found a face centered cubic cell.
 ALAT       =     4.0500000000
  
  Lattice vectors:
  
 A1 = (   0.0000000000,   2.0250000000,   2.0250000000)
 A2 = (   2.0250000000,   0.0000000000,   2.0250000000)
 A3 = (   2.0250000000,   2.0250000000,   0.0000000000)


Analysis of symmetry for initial positions (statically):
=====================================================================
 Subroutine PRICEL returns:
 Original cell was already a primitive cell.
 

 Routine SETGRP: Setting up the symmetry group for a 
 face centered cubic supercell.


 Subroutine GETGRP returns: Found 48 space group operations
 (whereof 48 operations were pure point group operations)
 out of a pool of 48 trial point group operations.


The static configuration has the point symmetry O_h .


Analysis of symmetry for dynamics (positions and initial velocities):
=====================================================================
 Subroutine PRICEL returns:
 Original cell was already a primitive cell.
 

 Routine SETGRP: Setting up the symmetry group for a 
 face centered cubic supercell.


 Subroutine GETGRP returns: Found 48 space group operations
 (whereof 48 operations were pure point group operations)
 out of a pool of 48 trial point group operations.


The dynamic configuration has the point symmetry O_h .
 
 
 KPOINTS: K-points along high symmetry lines for F
  interpolating k-points between supplied coordinates
  k-points in reciprocal lattice


--------------------------------------------------------------------------------------------------------




 Dimension of arrays:
   k-points           NKPTS =    320   k-points in BZ     NKDIM =    320   number of bands    NBANDS=      6
   number of dos      NEDOS =    301   number of ions     NIONS =      1
   non local maximal  LDIM  =      4   non local SUM 2l+1 LMDIM =      8
   total plane-waves  NPLWV =   1728
   max r-space proj   IRMAX =      1   max aug-charges    IRDMAX=   4249
   dimension x,y,z NGX =    12 NGY =   12 NGZ =   12
   dimension x,y,z NGXF=    24 NGYF=   24 NGZF=   24
   support grid    NGXF=    24 NGYF=   24 NGZF=   24
   ions per type =               1
 NGX,Y,Z   is equivalent  to a cutoff of   6.97,  6.97,  6.97 a.u.
 NGXF,Y,Z  is equivalent  to a cutoff of  13.93, 13.93, 13.93 a.u.


 I would recommend the setting:
   dimension x,y,z NGX =    11 NGY =   11 NGZ =   11
 SYSTEM =  Al                                      
 POSCAR =  Al                                      

 Startparameter for this run:
   NWRITE =      2    write-flag & timer
   PREC   = normal    normal or accurate (medium, high low for compatibility)
   ISTART =      0    job   : 0-new  1-cont  2-samecut
   ICHARG =     11    charge: 1-file 2-atom 10-const
   ISPIN  =      1    spin polarized calculation?
   LNONCOLLINEAR =      F non collinear calculations
   LSORBIT =      F    spin-orbit coupling
   INIWAV =      1    electr: 0-lowe 1-rand  2-diag
   LASPH  =      F    aspherical Exc in radial PAW
   METAGGA=      F    non-selfconsistent MetaGGA calc.

 Electronic Relaxation 1
   ENCUT  =  240.4 eV  17.67 Ry    4.20 a.u.   3.62  3.62  3.62*2*pi/ulx,y,z
   ENINI  =  240.4     initial cutoff
   ENAUG  =  291.1 eV  augmentation charge cutoff
   NELM   =     60;   NELMIN=  2; NELMDL= -5     # of ELM steps 
   EDIFF  = 0.1E-05   stopping-criterion for ELM
   LREAL  =      F    real-space projection
   NLSPLINE    = F    spline interpolate recip. space projectors
   LCOMPAT=      F    compatible to vasp.4.4
   GGA_COMPAT  = T    GGA compatible to vasp.4.4-vasp.4.6
   LMAXPAW     = -100 max onsite density
   LMAXMIX     =    2 max onsite mixed and CHGCAR
   VOSKOWN=      0    Vosko Wilk Nusair interpolation
   ROPT   =    0.00000
 Ionic relaxation
   EDIFFG = 0.1E-04   stopping-criterion for IOM
   NSW    =      0    number of steps for IOM
   NBLOCK =      1;   KBLOCK =      1    inner block; outer block 
   IBRION =     -1    ionic relax: 0-MD 1-quasi-New 2-CG
   NFREE  =      0    steps in history (QN), initial steepest desc. (CG)
   ISIF   =      2    stress and relaxation
   IWAVPR =     10    prediction:  0-non 1-charg 2-wave 3-comb
   ISYM   =      2    0-nonsym 1-usesym 2-fastsym
   LCORR  =      T    Harris-Foulkes like correction to forces

   POTIM  = 0.5000    time-step for ionic-motion
   TEIN   =    0.0    initial temperature
   TEBEG  =    0.0;   TEEND  =   0.0 temperature during run
   SMASS  =  -3.00    Nose mass-parameter (am)
   estimated Nose-frequenzy (Omega)   =  0.10E-29 period in steps =****** mass=  -0.187E-27a.u.
   SCALEE = 1.0000    scale energy and forces
   NPACO  =    256;   APACO  = 16.0  distance and # of slots for P.C.
   PSTRESS=    0.0 pullay stress

  Mass of Ions in am
   POMASS =  26.98
  Ionic Valenz
   ZVAL   =   3.00
  Atomic Wigner-Seitz radii
   RWIGS  =   1.40
  virtual crystal weights 
   VCA    =   1.00
   NELECT =       3.0000    total number of electrons
   NUPDOWN=      -1.0000    fix difference up-down

 DOS related values:
   EMIN   =  10.00;   EMAX   =-10.00  energy-range for DOS
   EFERMI =   0.00
   ISMEAR =     1;   SIGMA  =   0.20  broadening in eV -4-tet -1-fermi 0-gaus

 Electronic relaxation 2 (details)
   IALGO  =     38    algorithm
   LDIAG  =      T    sub-space diagonalisation (order eigenvalues)
   LSUBROT=      T    optimize rotation matrix (better conditioning)
   TURBO    =      0    0=normal 1=particle mesh
   IRESTART =      0    0=no restart 2=restart with 2 vectors
   NREBOOT  =      0    no. of reboots
   NMIN     =      0    reboot dimension
   EREF     =   0.00    reference energy to select bands
   IMIX   =      4    mixing-type and parameters
     AMIX     =   0.40;   BMIX     =  1.00
     AMIX_MAG =   1.60;   BMIX_MAG =  1.00
     AMIN     =   0.10
     WC   =   100.;   INIMIX=   1;  MIXPRE=   1;  MAXMIX= -45

 Intra band minimization:
   WEIMIN = 0.0000     energy-eigenvalue tresh-hold
   EBREAK =  0.42E-07  absolut break condition
   DEPER  =   0.30     relativ break condition  

   TIME   =   0.40     timestep for ELM

  volume/ion in A,a.u.               =      16.61       112.07
  Fermi-wavevector in a.u.,A,eV,Ry     =   0.925437  1.748822 11.652489  0.856434
  Thomas-Fermi vector in A             =   2.051291
 
 Write flags
   LWAVE  =      F    write WAVECAR
   LCHARG =      F    write CHGCAR
   LVTOT  =      F    write LOCPOT, total local potential
   LVHAR  =      F    write LOCPOT, Hartree potential only
   LELF   =      F    write electronic localiz. function (ELF)
   LORBIT =     10    0 simple, 1 ext, 2 COOP (PROOUT)


 Dipole corrections
   LMONO  =      F    monopole corrections only (constant potential shift)
   LDIPOL =      F    correct potential (dipole corrections)
   IDIPOL =      0    1-x, 2-y, 3-z, 4-all directions 
   EPSILON=  1.0000000 bulk dielectric constant

 Exchange correlation treatment:
   GGA     =    --    GGA type
   LEXCH   =     7    internal setting for exchange type
   VOSKOWN=      0    Vosko Wilk Nusair interpolation
   LHFCALC =     F    Hartree Fock is set to
   LHFONE  =     F    Hartree Fock one center treatment
   AEXX    =    0.0000 exact exchange contribution

 Linear response parameters
   LEPSILON=     F    determine dielectric tensor
   LRPA    =     F    only Hartree local field effects (RPA)
   LNABLA  =     F    use nabla operator in PAW spheres
   LVEL    =     F    velocity operator in full k-point grid
   LINTERFAST=   F  fast interpolation
   KINTER  =     0    interpolate to denser k-point grid
   CSHIFT  =0.1000    complex shift for real part using Kramers Kronig
   OMEGAMAX=  -1.0    maximum frequency
   DEG_THRESHOLD= 0.2000000E-02 threshold for treating states as degnerate
   RTIME   =    0.100 relaxation time in fs

 Orbital magnetization related:
   ORBITALMAG=     F  switch on orbital magnetization
   LCHIMAG   =     F  perturbation theory with respect to B field
   DQ        =  0.001000  dq finite difference perturbation B field



--------------------------------------------------------------------------------------------------------


 Static calculation
 charge density and potential remain constant during run
 non-spin polarized calculation
 Variant of blocked Davidson
 Davidson routine will perform the subspace rotation
 perform sub-space diagonalisation
    after iterative eigenvector-optimisation
 no mixing
 using additional bands            4
 reciprocal scheme for non local part
 use partial core corrections
 calculate Harris-corrections to forces 
   (improved forces if not selfconsistent)
 use gradient corrections 
 WARNING: stress and forces are not correct
  (second derivative of E(xc) not defined)
 use of overlap-Matrix (Vanderbilt PP)
 Methfessel and Paxton  Order N= 1 SIGMA  =   0.20


--------------------------------------------------------------------------------------------------------


  energy-cutoff  :      240.44
  volume of cell :       16.61
      direct lattice vectors                 reciprocal lattice vectors
     0.000000000  2.025000000  2.025000000    -0.246913580  0.246913580  0.246913580
     2.025000000  0.000000000  2.025000000     0.246913580 -0.246913580  0.246913580
     2.025000000  2.025000000  0.000000000     0.246913580  0.246913580 -0.246913580

  length of vectors
     2.863782464  2.863782464  2.863782464     0.427666866  0.427666866  0.427666866


 
 k-points in units of 2pi/SCALE and weight: K-points along high symmetry lines for F
   0.50000000  0.50000000  0.50000000       0.003
   0.50641026  0.48717949  0.50641026       0.003
   0.51282051  0.47435897  0.51282051       0.003
   0.51923077  0.46153846  0.51923077       0.003
   0.52564103  0.44871795  0.52564103       0.003
   0.53205128  0.43589744  0.53205128       0.003
   0.53846154  0.42307692  0.53846154       0.003
   0.54487179  0.41025641  0.54487179       0.003
   0.55128205  0.39743590  0.55128205       0.003
   0.55769231  0.38461538  0.55769231       0.003
   0.56410256  0.37179487  0.56410256       0.003
   0.57051282  0.35897436  0.57051282       0.003
   0.57692308  0.34615385  0.57692308       0.003
   0.58333333  0.33333333  0.58333333       0.003
   0.58974359  0.32051282  0.58974359       0.003
   0.59615385  0.30769231  0.59615385       0.003
   0.60256410  0.29487179  0.60256410       0.003
   0.60897436  0.28205128  0.60897436       0.003
   0.61538462  0.26923077  0.61538462       0.003
   0.62179487  0.25641026  0.62179487       0.003
   0.62820513  0.24358974  0.62820513       0.003
   0.63461538  0.23076923  0.63461538       0.003
   0.64102564  0.21794872  0.64102564       0.003
   0.64743590  0.20512821  0.64743590       0.003
   0.65384615  0.19230769  0.65384615       0.003
   0.66025641  0.17948718  0.66025641       0.003
   0.66666667  0.16666667  0.66666667       0.003
   0.67307692  0.15384615  0.67307692       0.003
   0.67948718  0.14102564  0.67948718       0.003
   0.68589744  0.12820513  0.68589744       0.003
   0.69230769  0.11538462  0.69230769       0.003
   0.69871795  0.10256410  0.69871795       0.003
   0.70512821  0.08974359  0.70512821       0.003
   0.71153846  0.07692308  0.71153846       0.003
   0.71794872  0.06410256  0.71794872       0.003
   0.72435897  0.05128205  0.72435897       0.003
   0.73076923  0.03846154  0.73076923       0.003
   0.73717949  0.02564103  0.73717949       0.003
   0.74358974  0.01282051  0.74358974       0.003
   0.75000000  0.00000000  0.75000000       0.003
   0.75000000  0.00000000  0.75000000       0.003
   0.75641026  0.00000000  0.74358974       0.003
   0.76282051  0.00000000  0.73717949       0.003
   0.76923077  0.00000000  0.73076923       0.003
   0.77564103  0.00000000  0.72435897       0.003
   0.78205128  0.00000000  0.71794872       0.003
   0.78846154  0.00000000  0.71153846       0.003
   0.79487179  0.00000000  0.70512821       0.003
   0.80128205  0.00000000  0.69871795       0.003
   0.80769231  0.00000000  0.69230769       0.003
   0.81410256  0.00000000  0.68589744       0.003
   0.82051282  0.00000000  0.67948718       0.003
   0.82692308  0.00000000  0.67307692       0.003
   0.83333333  0.00000000  0.66666667       0.003
   0.83974359  0.00000000  0.66025641       0.003
   0.84615385  0.00000000  0.65384615       0.003
   0.85256410  0.00000000  0.64743590       0.003
   0.85897436  0.00000000  0.64102564       0.003
   0.86538462  0.00000000  0.63461538       0.003
   0.87179487  0.00000000  0.62820513       0.003
   0.87820513  0.00000000  0.62179487       0.003
   0.88461538  0.00000000  0.61538462       0.003
   0.89102564  0.00000000  0.60897436       0.003
   0.89743590  0.00000000  0.60256410       0.003
   0.90384615  0.00000000  0.59615385       0.003
   0.91025641  0.00000000  0.58974359       0.003
   0.91666667  0.00000000  0.58333333       0.003
   0.92307692  0.00000000  0.57692308       0.003
   0.92948718  0.00000000  0.57051282       0.003
   0.93589744  0.00000000  0.56410256       0.003
   0.94230769  0.00000000  0.55769231       0.003
   0.94871795  0.00000000  0.55128205       0.003
   0.95512821  0.00000000  0.54487179       0.003
   0.96153846  0.00000000  0.53846154       0.003
   0.96794872  0.00000000  0.53205128       0.003
   0.97435897  0.00000000  0.52564103       0.003
   0.98076923  0.00000000  0.51923077       0.003
   0.98717949  0.00000000  0.51282051       0.003
   0.99358974  0.00000000  0.50641026       0.003
   1.00000000  0.00000000  0.50000000       0.003
   1.00000000  0.00000000  0.50000000       0.003
   0.97435897  0.00000000  0.48717949       0.003
   0.94871795  0.00000000  0.47435897       0.003
   0.92307692  0.00000000  0.46153846       0.003
   0.89743590  0.00000000  0.44871795       0.003
   0.87179487  0.00000000  0.43589744       0.003
   0.84615385  0.00000000  0.42307692       0.003
   0.82051282  0.00000000  0.41025641       0.003
   0.79487179  0.00000000  0.39743590       0.003
   0.76923077  0.00000000  0.38461538       0.003
   0.74358974  0.00000000  0.37179487       0.003
   0.71794872  0.00000000  0.35897436       0.003
   0.69230769  0.00000000  0.34615385       0.003
   0.66666667  0.00000000  0.33333333       0.003
   0.64102564  0.00000000  0.32051282       0.003
   0.61538462  0.00000000  0.30769231       0.003
   0.58974359  0.00000000  0.29487179       0.003
   0.56410256  0.00000000  0.28205128       0.003
   0.53846154  0.00000000  0.26923077       0.003
   0.51282051  0.00000000  0.25641026       0.003
   0.48717949  0.00000000  0.24358974       0.003
   0.46153846  0.00000000  0.23076923       0.003
   0.43589744  0.00000000  0.21794872       0.003
   0.41025641  0.00000000  0.20512821       0.003
   0.38461538  0.00000000  0.19230769       0.003
   0.35897436  0.00000000  0.17948718       0.003
   0.33333333  0.00000000  0.16666667       0.003
   0.30769231  0.00000000  0.15384615       0.003
   0.28205128  0.00000000  0.14102564       0.003
   0.25641026  0.00000000  0.12820513       0.003
   0.23076923  0.00000000  0.11538462       0.003
   0.20512821  0.00000000  0.10256410       0.003
   0.17948718  0.00000000  0.08974359       0.003
   0.15384615  0.00000000  0.07692308       0.003
   0.12820513  0.00000000  0.06410256       0.003
   0.10256410  0.00000000  0.05128205       0.003
   0.07692308  0.00000000  0.03846154       0.003
   0.05128205  0.00000000  0.02564103       0.003
   0.02564103  0.00000000  0.01282051       0.003
   0.00000000  0.00000000  0.00000000       0.003
   0.00000000  0.00000000  0.00000000       0.003
   0.02564103  0.00000000  0.00000000       0.003
   0.05128205  0.00000000  0.00000000       0.003
   0.07692308  0.00000000  0.00000000       0.003
   0.10256410  0.00000000  0.00000000       0.003
   0.12820513  0.00000000  0.00000000       0.003
   0.15384615  0.00000000  0.00000000       0.003
   0.17948718  0.00000000  0.00000000       0.003
   0.20512821  0.00000000  0.00000000       0.003
   0.23076923  0.00000000  0.00000000       0.003
   0.25641026  0.00000000  0.00000000       0.003
   0.28205128  0.00000000  0.00000000       0.003
   0.30769231  0.00000000  0.00000000       0.003
   0.33333333  0.00000000  0.00000000       0.003
   0.35897436  0.00000000  0.00000000       0.003
   0.38461538  0.00000000  0.00000000       0.003
   0.41025641  0.00000000  0.00000000       0.003
   0.43589744  0.00000000  0.00000000       0.003
   0.46153846  0.00000000  0.00000000       0.003
   0.48717949  0.00000000  0.00000000       0.003
   0.51282051  0.00000000  0.00000000       0.003
   0.53846154  0.00000000  0.00000000       0.003
   0.56410256  0.00000000  0.00000000       0.003
   0.58974359  0.00000000  0.00000000       0.003
   0.61538462  0.00000000  0.00000000       0.003
   0.64102564  0.00000000  0.00000000       0.003
   0.66666667  0.00000000  0.00000000       0.003
   0.69230769  0.00000000  0.00000000       0.003
   0.71794872  0.00000000  0.00000000       0.003
   0.74358974  0.00000000  0.00000000       0.003
   0.76923077  0.00000000  0.00000000       0.003
   0.79487179  0.00000000  0.00000000       0.003
   0.82051282  0.00000000  0.00000000       0.003
   0.84615385  0.00000000  0.00000000       0.003
   0.87179487  0.00000000  0.00000000       0.003
   0.89743590  0.00000000  0.00000000       0.003
   0.92307692  0.00000000  0.00000000       0.003
   0.94871795  0.00000000  0.00000000       0.003
   0.97435897  0.00000000  0.00000000       0.003
   1.00000000  0.00000000  0.00000000       0.003
   1.00000000  0.00000000  0.00000000       0.003
   1.00000000  0.00000000  0.01282051       0.003
   1.00000000  0.00000000  0.02564103       0.003
   1.00000000  0.00000000  0.03846154       0.003
   1.00000000  0.00000000  0.05128205       0.003
   1.00000000  0.00000000  0.06410256       0.003
   1.00000000  0.00000000  0.07692308       0.003
   1.00000000  0.00000000  0.08974359       0.003
   1.00000000  0.00000000  0.10256410       0.003
   1.00000000  0.00000000  0.11538462       0.003
   1.00000000  0.00000000  0.12820513       0.003
   1.00000000  0.00000000  0.14102564       0.003
   1.00000000  0.00000000  0.15384615       0.003
   1.00000000  0.00000000  0.16666667       0.003
   1.00000000  0.00000000  0.17948718       0.003
   1.00000000  0.00000000  0.19230769       0.003
   1.00000000  0.00000000  0.20512821       0.003
   1.00000000  0.00000000  0.21794872       0.003
   1.00000000  0.00000000  0.23076923       0.003
   1.00000000  0.00000000  0.24358974       0.003
   1.00000000  0.00000000  0.25641026       0.003
   1.00000000  0.00000000  0.26923077       0.003
   1.00000000  0.00000000  0.28205128       0.003
   1.00000000  0.00000000  0.29487179       0.003
   1.00000000  0.00000000  0.30769231       0.003
   1.00000000  0.00000000  0.32051282       0.003
   1.00000000  0.00000000  0.33333333       0.003
   1.00000000  0.00000000  0.34615385       0.003
   1.00000000  0.00000000  0.35897436       0.003
   1.00000000  0.00000000  0.37179487       0.003
   1.00000000  0.00000000  0.38461538       0.003
   1.00000000  0.00000000  0.39743590       0.003
   1.00000000  0.00000000  0.41025641       0.003
   1.00000000  0.00000000  0.42307692       0.003
   1.00000000  0.00000000  0.43589744       0.003
   1.00000000  0.00000000  0.44871795       0.003
   1.00000000  0.00000000  0.46153846       0.003
   1.00000000  0.00000000  0.47435897       0.003
   1.00000000  0.00000000  0.48717949       0.003
   1.00000000  0.00000000  0.50000000       0.003
   1.00000000  0.00000000  0.50000000       0.003
   0.98717949  0.01282051  0.50000000       0.003
   0.97435897  0.02564103  0.50000000       0.003
   0.96153846  0.03846154  0.50000000       0.003
   0.94871795  0.05128205  0.50000000       0.003
   0.93589744  0.06410256  0.50000000       0.003
   0.92307692  0.07692308  0.50000000       0.003
   0.91025641  0.08974359  0.50000000       0.003
   0.89743590  0.10256410  0.50000000       0.003
   0.88461538  0.11538462  0.50000000       0.003
   0.87179487  0.12820513  0.50000000       0.003
   0.85897436  0.14102564  0.50000000       0.003
   0.84615385  0.15384615  0.50000000       0.003
   0.83333333  0.16666667  0.50000000       0.003
   0.82051282  0.17948718  0.50000000       0.003
   0.80769231  0.19230769  0.50000000       0.003
   0.79487179  0.20512821  0.50000000       0.003
   0.78205128  0.21794872  0.50000000       0.003
   0.76923077  0.23076923  0.50000000       0.003
   0.75641026  0.24358974  0.50000000       0.003
   0.74358974  0.25641026  0.50000000       0.003
   0.73076923  0.26923077  0.50000000       0.003
   0.71794872  0.28205128  0.50000000       0.003
   0.70512821  0.29487179  0.50000000       0.003
   0.69230769  0.30769231  0.50000000       0.003
   0.67948718  0.32051282  0.50000000       0.003
   0.66666667  0.33333333  0.50000000       0.003
   0.65384615  0.34615385  0.50000000       0.003
   0.64102564  0.35897436  0.50000000       0.003
   0.62820513  0.37179487  0.50000000       0.003
   0.61538462  0.38461538  0.50000000       0.003
   0.60256410  0.39743590  0.50000000       0.003
   0.58974359  0.41025641  0.50000000       0.003
   0.57692308  0.42307692  0.50000000       0.003
   0.56410256  0.43589744  0.50000000       0.003
   0.55128205  0.44871795  0.50000000       0.003
   0.53846154  0.46153846  0.50000000       0.003
   0.52564103  0.47435897  0.50000000       0.003
   0.51282051  0.48717949  0.50000000       0.003
   0.50000000  0.50000000  0.50000000       0.003
   0.50000000  0.50000000  0.50000000       0.003
   0.48717949  0.48717949  0.48717949       0.003
   0.47435897  0.47435897  0.47435897       0.003
   0.46153846  0.46153846  0.46153846       0.003
   0.44871795  0.44871795  0.44871795       0.003
   0.43589744  0.43589744  0.43589744       0.003
   0.42307692  0.42307692  0.42307692       0.003
   0.41025641  0.41025641  0.41025641       0.003
   0.39743590  0.39743590  0.39743590       0.003
   0.38461538  0.38461538  0.38461538       0.003
   0.37179487  0.37179487  0.37179487       0.003
   0.35897436  0.35897436  0.35897436       0.003
   0.34615385  0.34615385  0.34615385       0.003
   0.33333333  0.33333333  0.33333333       0.003
   0.32051282  0.32051282  0.32051282       0.003
   0.30769231  0.30769231  0.30769231       0.003
   0.29487179  0.29487179  0.29487179       0.003
   0.28205128  0.28205128  0.28205128       0.003
   0.26923077  0.26923077  0.26923077       0.003
   0.25641026  0.25641026  0.25641026       0.003
   0.24358974  0.24358974  0.24358974       0.003
   0.23076923  0.23076923  0.23076923       0.003
   0.21794872  0.21794872  0.21794872       0.003
   0.20512821  0.20512821  0.20512821       0.003
   0.19230769  0.19230769  0.19230769       0.003
   0.17948718  0.17948718  0.17948718       0.003
   0.16666667  0.16666667  0.16666667       0.003
   0.15384615  0.15384615  0.15384615       0.003
   0.14102564  0.14102564  0.14102564       0.003
   0.12820513  0.12820513  0.12820513       0.003
   0.11538462  0.11538462  0.11538462       0.003
   0.10256410  0.10256410  0.10256410       0.003
   0.08974359  0.08974359  0.08974359       0.003
   0.07692308  0.07692308  0.07692308       0.003
   0.06410256  0.06410256  0.06410256       0.003
   0.05128205  0.05128205  0.05128205       0.003
   0.03846154  0.03846154  0.03846154       0.003
   0.02564103  0.02564103  0.02564103       0.003
   0.01282051  0.01282051  0.01282051       0.003
   0.00000000  0.00000000  0.00000000       0.003
   0.00000000  0.00000000  0.00000000       0.003
   0.01923077  0.00000000  0.01923077       0.003
   0.03846154  0.00000000  0.03846154       0.003
   0.05769231  0.00000000  0.05769231       0.003
   0.07692308  0.00000000  0.07692308       0.003
   0.09615385  0.00000000  0.09615385       0.003
   0.11538462  0.00000000  0.11538462       0.003
   0.13461538  0.00000000  0.13461538       0.003
   0.15384615  0.00000000  0.15384615       0.003
   0.17307692  0.00000000  0.17307692       0.003
   0.19230769  0.00000000  0.19230769       0.003
   0.21153846  0.00000000  0.21153846       0.003
   0.23076923  0.00000000  0.23076923       0.003
   0.25000000  0.00000000  0.25000000       0.003
   0.26923077  0.00000000  0.26923077       0.003
   0.28846154  0.00000000  0.28846154       0.003
   0.30769231  0.00000000  0.30769231       0.003
   0.32692308  0.00000000  0.32692308       0.003
   0.34615385  0.00000000  0.34615385       0.003
   0.36538462  0.00000000  0.36538462       0.003
   0.38461538  0.00000000  0.38461538       0.003
   0.40384615  0.00000000  0.40384615       0.003
   0.42307692  0.00000000  0.42307692       0.003
   0.44230769  0.00000000  0.44230769       0.003
   0.46153846  0.00000000  0.46153846       0.003
   0.48076923  0.00000000  0.48076923       0.003
   0.50000000  0.00000000  0.50000000       0.003
   0.51923077  0.00000000  0.51923077       0.003
   0.53846154  0.00000000  0.53846154       0.003
   0.55769231  0.00000000  0.55769231       0.003
   0.57692308  0.00000000  0.57692308       0.003
   0.59615385  0.00000000  0.59615385       0.003
   0.61538462  0.00000000  0.61538462       0.003
   0.63461538  0.00000000  0.63461538       0.003
   0.65384615  0.00000000  0.65384615       0.003
   0.67307692  0.00000000  0.67307692       0.003
   0.69230769  0.00000000  0.69230769       0.003
   0.71153846  0.00000000  0.71153846       0.003
   0.73076923  0.00000000  0.73076923       0.003
   0.75000000  0.00000000  0.75000000       0.003
 
 k-points in reciprocal lattice and weights: K-points along high symmetry lines for F
   0.50000000  0.50000000  0.50000000       0.003
   0.49679487  0.50641026  0.49679487       0.003
   0.49358974  0.51282051  0.49358974       0.003
   0.49038462  0.51923077  0.49038462       0.003
   0.48717949  0.52564103  0.48717949       0.003
   0.48397436  0.53205128  0.48397436       0.003
   0.48076923  0.53846154  0.48076923       0.003
   0.47756410  0.54487179  0.47756410       0.003
   0.47435897  0.55128205  0.47435897       0.003
   0.47115385  0.55769231  0.47115385       0.003
   0.46794872  0.56410256  0.46794872       0.003
   0.46474359  0.57051282  0.46474359       0.003
   0.46153846  0.57692308  0.46153846       0.003
   0.45833333  0.58333333  0.45833333       0.003
   0.45512821  0.58974359  0.45512821       0.003
   0.45192308  0.59615385  0.45192308       0.003
   0.44871795  0.60256410  0.44871795       0.003
   0.44551282  0.60897436  0.44551282       0.003
   0.44230769  0.61538462  0.44230769       0.003
   0.43910256  0.62179487  0.43910256       0.003
   0.43589744  0.62820513  0.43589744       0.003
   0.43269231  0.63461538  0.43269231       0.003
   0.42948718  0.64102564  0.42948718       0.003
   0.42628205  0.64743590  0.42628205       0.003
   0.42307692  0.65384615  0.42307692       0.003
   0.41987179  0.66025641  0.41987179       0.003
   0.41666667  0.66666667  0.41666667       0.003
   0.41346154  0.67307692  0.41346154       0.003
   0.41025641  0.67948718  0.41025641       0.003
   0.40705128  0.68589744  0.40705128       0.003
   0.40384615  0.69230769  0.40384615       0.003
   0.40064103  0.69871795  0.40064103       0.003
   0.39743590  0.70512821  0.39743590       0.003
   0.39423077  0.71153846  0.39423077       0.003
   0.39102564  0.71794872  0.39102564       0.003
   0.38782051  0.72435897  0.38782051       0.003
   0.38461538  0.73076923  0.38461538       0.003
   0.38141026  0.73717949  0.38141026       0.003
   0.37820513  0.74358974  0.37820513       0.003
   0.37500000  0.75000000  0.37500000       0.003
   0.37500000  0.75000000  0.37500000       0.003
   0.37179487  0.75000000  0.37820513       0.003
   0.36858974  0.75000000  0.38141026       0.003
   0.36538462  0.75000000  0.38461538       0.003
   0.36217949  0.75000000  0.38782051       0.003
   0.35897436  0.75000000  0.39102564       0.003
   0.35576923  0.75000000  0.39423077       0.003
   0.35256410  0.75000000  0.39743590       0.003
   0.34935897  0.75000000  0.40064103       0.003
   0.34615385  0.75000000  0.40384615       0.003
   0.34294872  0.75000000  0.40705128       0.003
   0.33974359  0.75000000  0.41025641       0.003
   0.33653846  0.75000000  0.41346154       0.003
   0.33333333  0.75000000  0.41666667       0.003
   0.33012821  0.75000000  0.41987179       0.003
   0.32692308  0.75000000  0.42307692       0.003
   0.32371795  0.75000000  0.42628205       0.003
   0.32051282  0.75000000  0.42948718       0.003
   0.31730769  0.75000000  0.43269231       0.003
   0.31410256  0.75000000  0.43589744       0.003
   0.31089744  0.75000000  0.43910256       0.003
   0.30769231  0.75000000  0.44230769       0.003
   0.30448718  0.75000000  0.44551282       0.003
   0.30128205  0.75000000  0.44871795       0.003
   0.29807692  0.75000000  0.45192308       0.003
   0.29487179  0.75000000  0.45512821       0.003
   0.29166667  0.75000000  0.45833333       0.003
   0.28846154  0.75000000  0.46153846       0.003
   0.28525641  0.75000000  0.46474359       0.003
   0.28205128  0.75000000  0.46794872       0.003
   0.27884615  0.75000000  0.47115385       0.003
   0.27564103  0.75000000  0.47435897       0.003
   0.27243590  0.75000000  0.47756410       0.003
   0.26923077  0.75000000  0.48076923       0.003
   0.26602564  0.75000000  0.48397436       0.003
   0.26282051  0.75000000  0.48717949       0.003
   0.25961538  0.75000000  0.49038462       0.003
   0.25641026  0.75000000  0.49358974       0.003
   0.25320513  0.75000000  0.49679487       0.003
   0.25000000  0.75000000  0.50000000       0.003
   0.25000000  0.75000000  0.50000000       0.003
   0.24358974  0.73076923  0.48717949       0.003
   0.23717949  0.71153846  0.47435897       0.003
   0.23076923  0.69230769  0.46153846       0.003
   0.22435897  0.67307692  0.44871795       0.003
   0.21794872  0.65384615  0.43589744       0.003
   0.21153846  0.63461538  0.42307692       0.003
   0.20512821  0.61538462  0.41025641       0.003
   0.19871795  0.59615385  0.39743590       0.003
   0.19230769  0.57692308  0.38461538       0.003
   0.18589744  0.55769231  0.37179487       0.003
   0.17948718  0.53846154  0.35897436       0.003
   0.17307692  0.51923077  0.34615385       0.003
   0.16666667  0.50000000  0.33333333       0.003
   0.16025641  0.48076923  0.32051282       0.003
   0.15384615  0.46153846  0.30769231       0.003
   0.14743590  0.44230769  0.29487179       0.003
   0.14102564  0.42307692  0.28205128       0.003
   0.13461538  0.40384615  0.26923077       0.003
   0.12820513  0.38461538  0.25641026       0.003
   0.12179487  0.36538462  0.24358974       0.003
   0.11538462  0.34615385  0.23076923       0.003
   0.10897436  0.32692308  0.21794872       0.003
   0.10256410  0.30769231  0.20512821       0.003
   0.09615385  0.28846154  0.19230769       0.003
   0.08974359  0.26923077  0.17948718       0.003
   0.08333333  0.25000000  0.16666667       0.003
   0.07692308  0.23076923  0.15384615       0.003
   0.07051282  0.21153846  0.14102564       0.003
   0.06410256  0.19230769  0.12820513       0.003
   0.05769231  0.17307692  0.11538462       0.003
   0.05128205  0.15384615  0.10256410       0.003
   0.04487179  0.13461538  0.08974359       0.003
   0.03846154  0.11538462  0.07692308       0.003
   0.03205128  0.09615385  0.06410256       0.003
   0.02564103  0.07692308  0.05128205       0.003
   0.01923077  0.05769231  0.03846154       0.003
   0.01282051  0.03846154  0.02564103       0.003
   0.00641026  0.01923077  0.01282051       0.003
   0.00000000  0.00000000  0.00000000       0.003
   0.00000000  0.00000000  0.00000000       0.003
   0.00000000  0.01282051  0.01282051       0.003
   0.00000000  0.02564103  0.02564103       0.003
   0.00000000  0.03846154  0.03846154       0.003
   0.00000000  0.05128205  0.05128205       0.003
   0.00000000  0.06410256  0.06410256       0.003
   0.00000000  0.07692308  0.07692308       0.003
   0.00000000  0.08974359  0.08974359       0.003
   0.00000000  0.10256410  0.10256410       0.003
   0.00000000  0.11538462  0.11538462       0.003
   0.00000000  0.12820513  0.12820513       0.003
   0.00000000  0.14102564  0.14102564       0.003
   0.00000000  0.15384615  0.15384615       0.003
   0.00000000  0.16666667  0.16666667       0.003
   0.00000000  0.17948718  0.17948718       0.003
   0.00000000  0.19230769  0.19230769       0.003
   0.00000000  0.20512821  0.20512821       0.003
   0.00000000  0.21794872  0.21794872       0.003
   0.00000000  0.23076923  0.23076923       0.003
   0.00000000  0.24358974  0.24358974       0.003
   0.00000000  0.25641026  0.25641026       0.003
   0.00000000  0.26923077  0.26923077       0.003
   0.00000000  0.28205128  0.28205128       0.003
   0.00000000  0.29487179  0.29487179       0.003
   0.00000000  0.30769231  0.30769231       0.003
   0.00000000  0.32051282  0.32051282       0.003
   0.00000000  0.33333333  0.33333333       0.003
   0.00000000  0.34615385  0.34615385       0.003
   0.00000000  0.35897436  0.35897436       0.003
   0.00000000  0.37179487  0.37179487       0.003
   0.00000000  0.38461538  0.38461538       0.003
   0.00000000  0.39743590  0.39743590       0.003
   0.00000000  0.41025641  0.41025641       0.003
   0.00000000  0.42307692  0.42307692       0.003
   0.00000000  0.43589744  0.43589744       0.003
   0.00000000  0.44871795  0.44871795       0.003
   0.00000000  0.46153846  0.46153846       0.003
   0.00000000  0.47435897  0.47435897       0.003
   0.00000000  0.48717949  0.48717949       0.003
   0.00000000  0.50000000  0.50000000       0.003
   0.00000000  0.50000000  0.50000000       0.003
   0.00641026  0.50641026  0.50000000       0.003
   0.01282051  0.51282051  0.50000000       0.003
   0.01923077  0.51923077  0.50000000       0.003
   0.02564103  0.52564103  0.50000000       0.003
   0.03205128  0.53205128  0.50000000       0.003
   0.03846154  0.53846154  0.50000000       0.003
   0.04487179  0.54487179  0.50000000       0.003
   0.05128205  0.55128205  0.50000000       0.003
   0.05769231  0.55769231  0.50000000       0.003
   0.06410256  0.56410256  0.50000000       0.003
   0.07051282  0.57051282  0.50000000       0.003
   0.07692308  0.57692308  0.50000000       0.003
   0.08333333  0.58333333  0.50000000       0.003
   0.08974359  0.58974359  0.50000000       0.003
   0.09615385  0.59615385  0.50000000       0.003
   0.10256410  0.60256410  0.50000000       0.003
   0.10897436  0.60897436  0.50000000       0.003
   0.11538462  0.61538462  0.50000000       0.003
   0.12179487  0.62179487  0.50000000       0.003
   0.12820513  0.62820513  0.50000000       0.003
   0.13461538  0.63461538  0.50000000       0.003
   0.14102564  0.64102564  0.50000000       0.003
   0.14743590  0.64743590  0.50000000       0.003
   0.15384615  0.65384615  0.50000000       0.003
   0.16025641  0.66025641  0.50000000       0.003
   0.16666667  0.66666667  0.50000000       0.003
   0.17307692  0.67307692  0.50000000       0.003
   0.17948718  0.67948718  0.50000000       0.003
   0.18589744  0.68589744  0.50000000       0.003
   0.19230769  0.69230769  0.50000000       0.003
   0.19871795  0.69871795  0.50000000       0.003
   0.20512821  0.70512821  0.50000000       0.003
   0.21153846  0.71153846  0.50000000       0.003
   0.21794872  0.71794872  0.50000000       0.003
   0.22435897  0.72435897  0.50000000       0.003
   0.23076923  0.73076923  0.50000000       0.003
   0.23717949  0.73717949  0.50000000       0.003
   0.24358974  0.74358974  0.50000000       0.003
   0.25000000  0.75000000  0.50000000       0.003
   0.25000000  0.75000000  0.50000000       0.003
   0.25641026  0.74358974  0.50000000       0.003
   0.26282051  0.73717949  0.50000000       0.003
   0.26923077  0.73076923  0.50000000       0.003
   0.27564103  0.72435897  0.50000000       0.003
   0.28205128  0.71794872  0.50000000       0.003
   0.28846154  0.71153846  0.50000000       0.003
   0.29487179  0.70512821  0.50000000       0.003
   0.30128205  0.69871795  0.50000000       0.003
   0.30769231  0.69230769  0.50000000       0.003
   0.31410256  0.68589744  0.50000000       0.003
   0.32051282  0.67948718  0.50000000       0.003
   0.32692308  0.67307692  0.50000000       0.003
   0.33333333  0.66666667  0.50000000       0.003
   0.33974359  0.66025641  0.50000000       0.003
   0.34615385  0.65384615  0.50000000       0.003
   0.35256410  0.64743590  0.50000000       0.003
   0.35897436  0.64102564  0.50000000       0.003
   0.36538462  0.63461538  0.50000000       0.003
   0.37179487  0.62820513  0.50000000       0.003
   0.37820513  0.62179487  0.50000000       0.003
   0.38461538  0.61538462  0.50000000       0.003
   0.39102564  0.60897436  0.50000000       0.003
   0.39743590  0.60256410  0.50000000       0.003
   0.40384615  0.59615385  0.50000000       0.003
   0.41025641  0.58974359  0.50000000       0.003
   0.41666667  0.58333333  0.50000000       0.003
   0.42307692  0.57692308  0.50000000       0.003
   0.42948718  0.57051282  0.50000000       0.003
   0.43589744  0.56410256  0.50000000       0.003
   0.44230769  0.55769231  0.50000000       0.003
   0.44871795  0.55128205  0.50000000       0.003
   0.45512821  0.54487179  0.50000000       0.003
   0.46153846  0.53846154  0.50000000       0.003
   0.46794872  0.53205128  0.50000000       0.003
   0.47435897  0.52564103  0.50000000       0.003
   0.48076923  0.51923077  0.50000000       0.003
   0.48717949  0.51282051  0.50000000       0.003
   0.49358974  0.50641026  0.50000000       0.003
   0.50000000  0.50000000  0.50000000       0.003
   0.50000000  0.50000000  0.50000000       0.003
   0.48717949  0.48717949  0.48717949       0.003
   0.47435897  0.47435897  0.47435897       0.003
   0.46153846  0.46153846  0.46153846       0.003
   0.44871795  0.44871795  0.44871795       0.003
   0.43589744  0.43589744  0.43589744       0.003
   0.42307692  0.42307692  0.42307692       0.003
   0.41025641  0.41025641  0.41025641       0.003
   0.39743590  0.39743590  0.39743590       0.003
   0.38461538  0.38461538  0.38461538       0.003
   0.37179487  0.37179487  0.37179487       0.003
   0.35897436  0.35897436  0.35897436       0.003
   0.34615385  0.34615385  0.34615385       0.003
   0.33333333  0.33333333  0.33333333       0.003
   0.32051282  0.32051282  0.32051282       0.003
   0.30769231  0.30769231  0.30769231       0.003
   0.29487179  0.29487179  0.29487179       0.003
   0.28205128  0.28205128  0.28205128       0.003
   0.26923077  0.26923077  0.26923077       0.003
   0.25641026  0.25641026  0.25641026       0.003
   0.24358974  0.24358974  0.24358974       0.003
   0.23076923  0.23076923  0.23076923       0.003
   0.21794872  0.21794872  0.21794872       0.003
   0.20512821  0.20512821  0.20512821       0.003
   0.19230769  0.19230769  0.19230769       0.003
   0.17948718  0.17948718  0.17948718       0.003
   0.16666667  0.16666667  0.16666667       0.003
   0.15384615  0.15384615  0.15384615       0.003
   0.14102564  0.14102564  0.14102564       0.003
   0.12820513  0.12820513  0.12820513       0.003
   0.11538462  0.11538462  0.11538462       0.003
   0.10256410  0.10256410  0.10256410       0.003
   0.08974359  0.08974359  0.08974359       0.003
   0.07692308  0.07692308  0.07692308       0.003
   0.06410256  0.06410256  0.06410256       0.003
   0.05128205  0.05128205  0.05128205       0.003
   0.03846154  0.03846154  0.03846154       0.003
   0.02564103  0.02564103  0.02564103       0.003
   0.01282051  0.01282051  0.01282051       0.003
   0.00000000  0.00000000  0.00000000       0.003
   0.00000000  0.00000000  0.00000000       0.003
   0.00961538  0.01923077  0.00961538       0.003
   0.01923077  0.03846154  0.01923077       0.003
   0.02884615  0.05769231  0.02884615       0.003
   0.03846154  0.07692308  0.03846154       0.003
   0.04807692  0.09615385  0.04807692       0.003
   0.05769231  0.11538462  0.05769231       0.003
   0.06730769  0.13461538  0.06730769       0.003
   0.07692308  0.15384615  0.07692308       0.003
   0.08653846  0.17307692  0.08653846       0.003
   0.09615385  0.19230769  0.09615385       0.003
   0.10576923  0.21153846  0.10576923       0.003
   0.11538462  0.23076923  0.11538462       0.003
   0.12500000  0.25000000  0.12500000       0.003
   0.13461538  0.26923077  0.13461538       0.003
   0.14423077  0.28846154  0.14423077       0.003
   0.15384615  0.30769231  0.15384615       0.003
   0.16346154  0.32692308  0.16346154       0.003
   0.17307692  0.34615385  0.17307692       0.003
   0.18269231  0.36538462  0.18269231       0.003
   0.19230769  0.38461538  0.19230769       0.003
   0.20192308  0.40384615  0.20192308       0.003
   0.21153846  0.42307692  0.21153846       0.003
   0.22115385  0.44230769  0.22115385       0.003
   0.23076923  0.46153846  0.23076923       0.003
   0.24038462  0.48076923  0.24038462       0.003
   0.25000000  0.50000000  0.25000000       0.003
   0.25961538  0.51923077  0.25961538       0.003
   0.26923077  0.53846154  0.26923077       0.003
   0.27884615  0.55769231  0.27884615       0.003
   0.28846154  0.57692308  0.28846154       0.003
   0.29807692  0.59615385  0.29807692       0.003
   0.30769231  0.61538462  0.30769231       0.003
   0.31730769  0.63461538  0.31730769       0.003
   0.32692308  0.65384615  0.32692308       0.003
   0.33653846  0.67307692  0.33653846       0.003
   0.34615385  0.69230769  0.34615385       0.003
   0.35576923  0.71153846  0.35576923       0.003
   0.36538462  0.73076923  0.36538462       0.003
   0.37500000  0.75000000  0.37500000       0.003
 
 position of ions in fractional coordinates (direct lattice) 
   0.00000000  0.00000000  0.00000000
 
 position of ions in cartesian coordinates  (Angst):
   0.00000000  0.00000000  0.00000000
 


--------------------------------------------------------------------------------------------------------


 k-point  1 :   0.5000 0.5000 0.5000  plane waves:     138
 k-point  2 :   0.4968 0.5064 0.4968  plane waves:     138
 k-point  3 :   0.4936 0.5128 0.4936  plane waves:     138
 k-point  4 :   0.4904 0.5192 0.4904  plane waves:     138
 k-point  5 :   0.4872 0.5256 0.4872  plane waves:     138
 k-point  6 :   0.4840 0.5321 0.4840  plane waves:     138
 k-point  7 :   0.4808 0.5385 0.4808  plane waves:     138
 k-point  8 :   0.4776 0.5449 0.4776  plane waves:     138
 k-point  9 :   0.4744 0.5513 0.4744  plane waves:     142
 k-point 10 :   0.4712 0.5577 0.4712  plane waves:     142
 k-point 11 :   0.4679 0.5641 0.4679  plane waves:     140
 k-point 12 :   0.4647 0.5705 0.4647  plane waves:     141
 k-point 13 :   0.4615 0.5769 0.4615  plane waves:     141
 k-point 14 :   0.4583 0.5833 0.4583  plane waves:     141
 k-point 15 :   0.4551 0.5897 0.4551  plane waves:     140
 k-point 16 :   0.4519 0.5962 0.4519  plane waves:     140
 k-point 17 :   0.4487 0.6026 0.4487  plane waves:     140
 k-point 18 :   0.4455 0.6090 0.4455  plane waves:     140
 k-point 19 :   0.4423 0.6154 0.4423  plane waves:     140
 k-point 20 :   0.4391 0.6218 0.4391  plane waves:     136
 k-point 21 :   0.4359 0.6282 0.4359  plane waves:     136
 k-point 22 :   0.4327 0.6346 0.4327  plane waves:     138
 k-point 23 :   0.4295 0.6410 0.4295  plane waves:     138
 k-point 24 :   0.4263 0.6474 0.4263  plane waves:     138
 k-point 25 :   0.4231 0.6538 0.4231  plane waves:     138
 k-point 26 :   0.4199 0.6603 0.4199  plane waves:     138
 k-point 27 :   0.4167 0.6667 0.4167  plane waves:     134
 k-point 28 :   0.4135 0.6731 0.4135  plane waves:     136
 k-point 29 :   0.4103 0.6795 0.4103  plane waves:     136
 k-point 30 :   0.4071 0.6859 0.4071  plane waves:     138
 k-point 31 :   0.4038 0.6923 0.4038  plane waves:     138
 k-point 32 :   0.4006 0.6987 0.4006  plane waves:     140
 k-point 33 :   0.3974 0.7051 0.3974  plane waves:     138
 k-point 34 :   0.3942 0.7115 0.3942  plane waves:     138
 k-point 35 :   0.3910 0.7179 0.3910  plane waves:     138
 k-point 36 :   0.3878 0.7244 0.3878  plane waves:     138
 k-point 37 :   0.3846 0.7308 0.3846  plane waves:     138
 k-point 38 :   0.3814 0.7372 0.3814  plane waves:     138
 k-point 39 :   0.3782 0.7436 0.3782  plane waves:     138
 k-point 40 :   0.3750 0.7500 0.3750  plane waves:     138
 k-point 41 :   0.3750 0.7500 0.3750  plane waves:     138
 k-point 42 :   0.3718 0.7500 0.3782  plane waves:     138
 k-point 43 :   0.3686 0.7500 0.3814  plane waves:     138
 k-point 44 :   0.3654 0.7500 0.3846  plane waves:     138
 k-point 45 :   0.3622 0.7500 0.3878  plane waves:     136
 k-point 46 :   0.3590 0.7500 0.3910  plane waves:     136
 k-point 47 :   0.3558 0.7500 0.3942  plane waves:     136
 k-point 48 :   0.3526 0.7500 0.3974  plane waves:     136
 k-point 49 :   0.3494 0.7500 0.4006  plane waves:     136
 k-point 50 :   0.3462 0.7500 0.4038  plane waves:     136
 k-point 51 :   0.3429 0.7500 0.4071  plane waves:     136
 k-point 52 :   0.3397 0.7500 0.4103  plane waves:     136
 k-point 53 :   0.3365 0.7500 0.4135  plane waves:     136
 k-point 54 :   0.3333 0.7500 0.4167  plane waves:     136
 k-point 55 :   0.3301 0.7500 0.4199  plane waves:     136
 k-point 56 :   0.3269 0.7500 0.4231  plane waves:     136
 k-point 57 :   0.3237 0.7500 0.4263  plane waves:     136
 k-point 58 :   0.3205 0.7500 0.4295  plane waves:     136
 k-point 59 :   0.3173 0.7500 0.4327  plane waves:     136
 k-point 60 :   0.3141 0.7500 0.4359  plane waves:     142
 k-point 61 :   0.3109 0.7500 0.4391  plane waves:     142
 k-point 62 :   0.3077 0.7500 0.4423  plane waves:     140
 k-point 63 :   0.3045 0.7500 0.4455  plane waves:     140
 k-point 64 :   0.3013 0.7500 0.4487  plane waves:     140
 k-point 65 :   0.2981 0.7500 0.4519  plane waves:     140
 k-point 66 :   0.2949 0.7500 0.4551  plane waves:     140
 k-point 67 :   0.2917 0.7500 0.4583  plane waves:     145
 k-point 68 :   0.2885 0.7500 0.4615  plane waves:     144
 k-point 69 :   0.2853 0.7500 0.4647  plane waves:     144
 k-point 70 :   0.2821 0.7500 0.4679  plane waves:     144
 k-point 71 :   0.2788 0.7500 0.4712  plane waves:     144
 k-point 72 :   0.2756 0.7500 0.4744  plane waves:     144
 k-point 73 :   0.2724 0.7500 0.4776  plane waves:     144
 k-point 74 :   0.2692 0.7500 0.4808  plane waves:     144
 k-point 75 :   0.2660 0.7500 0.4840  plane waves:     144
 k-point 76 :   0.2628 0.7500 0.4872  plane waves:     144
 k-point 77 :   0.2596 0.7500 0.4904  plane waves:     144
 k-point 78 :   0.2564 0.7500 0.4936  plane waves:     144
 k-point 79 :   0.2532 0.7500 0.4968  plane waves:     144
 k-point 80 :   0.2500 0.7500 0.5000  plane waves:     144
 k-point 81 :   0.2500 0.7500 0.5000  plane waves:     144
 k-point 82 :   0.2436 0.7308 0.4872  plane waves:     144
 k-point 83 :   0.2372 0.7115 0.4744  plane waves:     144
 k-point 84 :   0.2308 0.6923 0.4615  plane waves:     144
 k-point 85 :   0.2244 0.6731 0.4487  plane waves:     141
 k-point 86 :   0.2179 0.6538 0.4359  plane waves:     140
 k-point 87 :   0.2115 0.6346 0.4231  plane waves:     140
 k-point 88 :   0.2051 0.6154 0.4103  plane waves:     138
 k-point 89 :   0.1987 0.5962 0.3974  plane waves:     138
 k-point 90 :   0.1923 0.5769 0.3846  plane waves:     138
 k-point 91 :   0.1859 0.5577 0.3718  plane waves:     140
 k-point 92 :   0.1795 0.5385 0.3590  plane waves:     140
 k-point 93 :   0.1731 0.5192 0.3462  plane waves:     143
 k-point 94 :   0.1667 0.5000 0.3333  plane waves:     143
 k-point 95 :   0.1603 0.4808 0.3205  plane waves:     143
 k-point 96 :   0.1538 0.4615 0.3077  plane waves:     143
 k-point 97 :   0.1474 0.4423 0.2949  plane waves:     143
 k-point 98 :   0.1410 0.4231 0.2821  plane waves:     144
 k-point 99 :   0.1346 0.4038 0.2692  plane waves:     144
 k-point ** :   0.1282 0.3846 0.2564  plane waves:     144
 k-point ** :   0.1218 0.3654 0.2436  plane waves:     143
 k-point ** :   0.1154 0.3462 0.2308  plane waves:     143
 k-point ** :   0.1090 0.3269 0.2179  plane waves:     143
 k-point ** :   0.1026 0.3077 0.2051  plane waves:     143
 k-point ** :   0.0962 0.2885 0.1923  plane waves:     143
 k-point ** :   0.0897 0.2692 0.1795  plane waves:     143
 k-point ** :   0.0833 0.2500 0.1667  plane waves:     147
 k-point ** :   0.0769 0.2308 0.1538  plane waves:     147
 k-point ** :   0.0705 0.2115 0.1410  plane waves:     141
 k-point ** :   0.0641 0.1923 0.1282  plane waves:     143
 k-point ** :   0.0577 0.1731 0.1154  plane waves:     143
 k-point ** :   0.0513 0.1538 0.1026  plane waves:     145
 k-point ** :   0.0449 0.1346 0.0897  plane waves:     145
 k-point ** :   0.0385 0.1154 0.0769  plane waves:     145
 k-point ** :   0.0321 0.0962 0.0641  plane waves:     145
 k-point ** :   0.0256 0.0769 0.0513  plane waves:     143
 k-point ** :   0.0192 0.0577 0.0385  plane waves:     139
 k-point ** :   0.0128 0.0385 0.0256  plane waves:     137
 k-point ** :   0.0064 0.0192 0.0128  plane waves:     137
 k-point ** :   0.0000 0.0000 0.0000  plane waves:     137
 k-point ** :   0.0000 0.0000 0.0000  plane waves:     137
 k-point ** :   0.0000 0.0128 0.0128  plane waves:     137
 k-point ** :   0.0000 0.0256 0.0256  plane waves:     137
 k-point ** :   0.0000 0.0385 0.0385  plane waves:     137
 k-point ** :   0.0000 0.0513 0.0513  plane waves:     141
 k-point ** :   0.0000 0.0641 0.0641  plane waves:     141
 k-point ** :   0.0000 0.0769 0.0769  plane waves:     145
 k-point ** :   0.0000 0.0897 0.0897  plane waves:     145
 k-point ** :   0.0000 0.1026 0.1026  plane waves:     145
 k-point ** :   0.0000 0.1154 0.1154  plane waves:     145
 k-point ** :   0.0000 0.1282 0.1282  plane waves:     145
 k-point ** :   0.0000 0.1410 0.1410  plane waves:     141
 k-point ** :   0.0000 0.1538 0.1538  plane waves:     141
 k-point ** :   0.0000 0.1667 0.1667  plane waves:     141
 k-point ** :   0.0000 0.1795 0.1795  plane waves:     141
 k-point ** :   0.0000 0.1923 0.1923  plane waves:     141
 k-point ** :   0.0000 0.2051 0.2051  plane waves:     141
 k-point ** :   0.0000 0.2179 0.2179  plane waves:     141
 k-point ** :   0.0000 0.2308 0.2308  plane waves:     141
 k-point ** :   0.0000 0.2436 0.2436  plane waves:     141
 k-point ** :   0.0000 0.2564 0.2564  plane waves:     133
 k-point ** :   0.0000 0.2692 0.2692  plane waves:     141
 k-point ** :   0.0000 0.2821 0.2821  plane waves:     141
 k-point ** :   0.0000 0.2949 0.2949  plane waves:     141
 k-point ** :   0.0000 0.3077 0.3077  plane waves:     141
 k-point ** :   0.0000 0.3205 0.3205  plane waves:     141
 k-point ** :   0.0000 0.3333 0.3333  plane waves:     141
 k-point ** :   0.0000 0.3462 0.3462  plane waves:     141
 k-point ** :   0.0000 0.3590 0.3590  plane waves:     137
 k-point ** :   0.0000 0.3718 0.3718  plane waves:     137
 k-point ** :   0.0000 0.3846 0.3846  plane waves:     137
 k-point ** :   0.0000 0.3974 0.3974  plane waves:     137
 k-point ** :   0.0000 0.4103 0.4103  plane waves:     141
 k-point ** :   0.0000 0.4231 0.4231  plane waves:     141
 k-point ** :   0.0000 0.4359 0.4359  plane waves:     141
 k-point ** :   0.0000 0.4487 0.4487  plane waves:     142
 k-point ** :   0.0000 0.4615 0.4615  plane waves:     142
 k-point ** :   0.0000 0.4744 0.4744  plane waves:     142
 k-point ** :   0.0000 0.4872 0.4872  plane waves:     150
 k-point ** :   0.0000 0.5000 0.5000  plane waves:     150
 k-point ** :   0.0000 0.5000 0.5000  plane waves:     150
 k-point ** :   0.0064 0.5064 0.5000  plane waves:     150
 k-point ** :   0.0128 0.5128 0.5000  plane waves:     148
 k-point ** :   0.0192 0.5192 0.5000  plane waves:     144
 k-point ** :   0.0256 0.5256 0.5000  plane waves:     144
 k-point ** :   0.0321 0.5321 0.5000  plane waves:     144
 k-point ** :   0.0385 0.5385 0.5000  plane waves:     144
 k-point ** :   0.0449 0.5449 0.5000  plane waves:     144
 k-point ** :   0.0513 0.5513 0.5000  plane waves:     144
 k-point ** :   0.0577 0.5577 0.5000  plane waves:     138
 k-point ** :   0.0641 0.5641 0.5000  plane waves:     138
 k-point ** :   0.0705 0.5705 0.5000  plane waves:     138
 k-point ** :   0.0769 0.5769 0.5000  plane waves:     136
 k-point ** :   0.0833 0.5833 0.5000  plane waves:     136
 k-point ** :   0.0897 0.5897 0.5000  plane waves:     136
 k-point ** :   0.0962 0.5962 0.5000  plane waves:     136
 k-point ** :   0.1026 0.6026 0.5000  plane waves:     136
 k-point ** :   0.1090 0.6090 0.5000  plane waves:     136
 k-point ** :   0.1154 0.6154 0.5000  plane waves:     136
 k-point ** :   0.1218 0.6218 0.5000  plane waves:     136
 k-point ** :   0.1282 0.6282 0.5000  plane waves:     136
 k-point ** :   0.1346 0.6346 0.5000  plane waves:     136
 k-point ** :   0.1410 0.6410 0.5000  plane waves:     136
 k-point ** :   0.1474 0.6474 0.5000  plane waves:     136
 k-point ** :   0.1538 0.6538 0.5000  plane waves:     136
 k-point ** :   0.1603 0.6603 0.5000  plane waves:     136
 k-point ** :   0.1667 0.6667 0.5000  plane waves:     136
 k-point ** :   0.1731 0.6731 0.5000  plane waves:     136
 k-point ** :   0.1795 0.6795 0.5000  plane waves:     136
 k-point ** :   0.1859 0.6859 0.5000  plane waves:     140
 k-point ** :   0.1923 0.6923 0.5000  plane waves:     140
 k-point ** :   0.1987 0.6987 0.5000  plane waves:     144
 k-point ** :   0.2051 0.7051 0.5000  plane waves:     144
 k-point ** :   0.2115 0.7115 0.5000  plane waves:     144
 k-point ** :   0.2179 0.7179 0.5000  plane waves:     144
 k-point ** :   0.2244 0.7244 0.5000  plane waves:     144
 k-point ** :   0.2308 0.7308 0.5000  plane waves:     144
 k-point ** :   0.2372 0.7372 0.5000  plane waves:     144
 k-point ** :   0.2436 0.7436 0.5000  plane waves:     144
 k-point ** :   0.2500 0.7500 0.5000  plane waves:     144
 k-point ** :   0.2500 0.7500 0.5000  plane waves:     144
 k-point ** :   0.2564 0.7436 0.5000  plane waves:     144
 k-point ** :   0.2628 0.7372 0.5000  plane waves:     144
 k-point ** :   0.2692 0.7308 0.5000  plane waves:     144
 k-point ** :   0.2756 0.7244 0.5000  plane waves:     144
 k-point ** :   0.2821 0.7179 0.5000  plane waves:     144
 k-point ** :   0.2885 0.7115 0.5000  plane waves:     144
 k-point ** :   0.2949 0.7051 0.5000  plane waves:     144
 k-point ** :   0.3013 0.6987 0.5000  plane waves:     140
 k-point ** :   0.3077 0.6923 0.5000  plane waves:     142
 k-point ** :   0.3141 0.6859 0.5000  plane waves:     142
 k-point ** :   0.3205 0.6795 0.5000  plane waves:     142
 k-point ** :   0.3269 0.6731 0.5000  plane waves:     140
 k-point ** :   0.3333 0.6667 0.5000  plane waves:     140
 k-point ** :   0.3397 0.6603 0.5000  plane waves:     140
 k-point ** :   0.3462 0.6538 0.5000  plane waves:     140
 k-point ** :   0.3526 0.6474 0.5000  plane waves:     140
 k-point ** :   0.3590 0.6410 0.5000  plane waves:     140
 k-point ** :   0.3654 0.6346 0.5000  plane waves:     142
 k-point ** :   0.3718 0.6282 0.5000  plane waves:     142
 k-point ** :   0.3782 0.6218 0.5000  plane waves:     142
 k-point ** :   0.3846 0.6154 0.5000  plane waves:     142
 k-point ** :   0.3910 0.6090 0.5000  plane waves:     140
 k-point ** :   0.3974 0.6026 0.5000  plane waves:     140
 k-point ** :   0.4038 0.5962 0.5000  plane waves:     140
 k-point ** :   0.4103 0.5897 0.5000  plane waves:     140
 k-point ** :   0.4167 0.5833 0.5000  plane waves:     142
 k-point ** :   0.4231 0.5769 0.5000  plane waves:     142
 k-point ** :   0.4295 0.5705 0.5000  plane waves:     136
 k-point ** :   0.4359 0.5641 0.5000  plane waves:     136
 k-point ** :   0.4423 0.5577 0.5000  plane waves:     140
 k-point ** :   0.4487 0.5513 0.5000  plane waves:     140
 k-point ** :   0.4551 0.5449 0.5000  plane waves:     140
 k-point ** :   0.4615 0.5385 0.5000  plane waves:     140
 k-point ** :   0.4679 0.5321 0.5000  plane waves:     138
 k-point ** :   0.4744 0.5256 0.5000  plane waves:     138
 k-point ** :   0.4808 0.5192 0.5000  plane waves:     138
 k-point ** :   0.4872 0.5128 0.5000  plane waves:     138
 k-point ** :   0.4936 0.5064 0.5000  plane waves:     138
 k-point ** :   0.5000 0.5000 0.5000  plane waves:     138
 k-point ** :   0.5000 0.5000 0.5000  plane waves:     138
 k-point ** :   0.4872 0.4872 0.4872  plane waves:     138
 k-point ** :   0.4744 0.4744 0.4744  plane waves:     138
 k-point ** :   0.4615 0.4615 0.4615  plane waves:     147
 k-point ** :   0.4487 0.4487 0.4487  plane waves:     147
 k-point ** :   0.4359 0.4359 0.4359  plane waves:     147
 k-point ** :   0.4231 0.4231 0.4231  plane waves:     147
 k-point ** :   0.4103 0.4103 0.4103  plane waves:     147
 k-point ** :   0.3974 0.3974 0.3974  plane waves:     147
 k-point ** :   0.3846 0.3846 0.3846  plane waves:     144
 k-point ** :   0.3718 0.3718 0.3718  plane waves:     144
 k-point ** :   0.3590 0.3590 0.3590  plane waves:     144
 k-point ** :   0.3462 0.3462 0.3462  plane waves:     144
 k-point ** :   0.3333 0.3333 0.3333  plane waves:     144
 k-point ** :   0.3205 0.3205 0.3205  plane waves:     144
 k-point ** :   0.3077 0.3077 0.3077  plane waves:     144
 k-point ** :   0.2949 0.2949 0.2949  plane waves:     144
 k-point ** :   0.2821 0.2821 0.2821  plane waves:     144
 k-point ** :   0.2692 0.2692 0.2692  plane waves:     144
 k-point ** :   0.2564 0.2564 0.2564  plane waves:     144
 k-point ** :   0.2436 0.2436 0.2436  plane waves:     150
 k-point ** :   0.2308 0.2308 0.2308  plane waves:     150
 k-point ** :   0.2179 0.2179 0.2179  plane waves:     150
 k-point ** :   0.2051 0.2051 0.2051  plane waves:     150
 k-point ** :   0.1923 0.1923 0.1923  plane waves:     150
 k-point ** :   0.1795 0.1795 0.1795  plane waves:     150
 k-point ** :   0.1667 0.1667 0.1667  plane waves:     150
 k-point ** :   0.1538 0.1538 0.1538  plane waves:     150
 k-point ** :   0.1410 0.1410 0.1410  plane waves:     150
 k-point ** :   0.1282 0.1282 0.1282  plane waves:     147
 k-point ** :   0.1154 0.1154 0.1154  plane waves:     147
 k-point ** :   0.1026 0.1026 0.1026  plane waves:     147
 k-point ** :   0.0897 0.0897 0.0897  plane waves:     147
 k-point ** :   0.0769 0.0769 0.0769  plane waves:     141
 k-point ** :   0.0641 0.0641 0.0641  plane waves:     141
 k-point ** :   0.0513 0.0513 0.0513  plane waves:     138
 k-point ** :   0.0385 0.0385 0.0385  plane waves:     137
 k-point ** :   0.0256 0.0256 0.0256  plane waves:     137
 k-point ** :   0.0128 0.0128 0.0128  plane waves:     137
 k-point ** :   0.0000 0.0000 0.0000  plane waves:     137
 k-point ** :   0.0000 0.0000 0.0000  plane waves:     137
 k-point ** :   0.0096 0.0192 0.0096  plane waves:     137
 k-point ** :   0.0192 0.0385 0.0192  plane waves:     137
 k-point ** :   0.0288 0.0577 0.0288  plane waves:     137
 k-point ** :   0.0385 0.0769 0.0385  plane waves:     143
 k-point ** :   0.0481 0.0962 0.0481  plane waves:     143
 k-point ** :   0.0577 0.1154 0.0577  plane waves:     147
 k-point ** :   0.0673 0.1346 0.0673  plane waves:     147
 k-point ** :   0.0769 0.1538 0.0769  plane waves:     147
 k-point ** :   0.0865 0.1731 0.0865  plane waves:     147
 k-point ** :   0.0962 0.1923 0.0962  plane waves:     143
 k-point ** :   0.1058 0.2115 0.1058  plane waves:     143
 k-point ** :   0.1154 0.2308 0.1154  plane waves:     145
 k-point ** :   0.1250 0.2500 0.1250  plane waves:     145
 k-point ** :   0.1346 0.2692 0.1346  plane waves:     143
 k-point ** :   0.1442 0.2885 0.1442  plane waves:     143
 k-point ** :   0.1538 0.3077 0.1538  plane waves:     143
 k-point ** :   0.1635 0.3269 0.1635  plane waves:     143
 k-point ** :   0.1731 0.3462 0.1731  plane waves:     143
 k-point ** :   0.1827 0.3654 0.1827  plane waves:     143
 k-point ** :   0.1923 0.3846 0.1923  plane waves:     144
 k-point ** :   0.2019 0.4038 0.2019  plane waves:     144
 k-point ** :   0.2115 0.4231 0.2115  plane waves:     144
 k-point ** :   0.2212 0.4423 0.2212  plane waves:     144
 k-point ** :   0.2308 0.4615 0.2308  plane waves:     140
 k-point ** :   0.2404 0.4808 0.2404  plane waves:     138
 k-point ** :   0.2500 0.5000 0.2500  plane waves:     138
 k-point ** :   0.2596 0.5192 0.2596  plane waves:     138
 k-point ** :   0.2692 0.5385 0.2692  plane waves:     138
 k-point ** :   0.2788 0.5577 0.2788  plane waves:     136
 k-point ** :   0.2885 0.5769 0.2885  plane waves:     136
 k-point ** :   0.2981 0.5962 0.2981  plane waves:     140
 k-point ** :   0.3077 0.6154 0.3077  plane waves:     140
 k-point ** :   0.3173 0.6346 0.3173  plane waves:     140
 k-point ** :   0.3269 0.6538 0.3269  plane waves:     140
 k-point ** :   0.3365 0.6731 0.3365  plane waves:     138
 k-point ** :   0.3462 0.6923 0.3462  plane waves:     138
 k-point ** :   0.3558 0.7115 0.3558  plane waves:     138
 k-point ** :   0.3654 0.7308 0.3654  plane waves:     138
 k-point ** :   0.3750 0.7500 0.3750  plane waves:     138

 maximum and minimum number of plane-waves per node :       150      133

 maximum number of plane-waves:       150
 maximum index in each direction: 
   IXMAX=    3   IYMAX=    3   IZMAX=    3
   IXMIN=   -4   IYMIN=   -4   IZMIN=   -4

 WARNING: aliasing errors must be expected set NGX to  16 to avoid them
 WARNING: aliasing errors must be expected set NGY to  16 to avoid them
 WARNING: aliasing errors must be expected set NGZ to  16 to avoid them
 aliasing errors are usually negligible using standard VASP settings
 and one can safely disregard these warnings

 serial   3D FFT for wavefunctions
 parallel 3D FFT for charge:
    minimum data exchange during FFTs selected (reduces bandwidth)


 total amount of memory used by VASP on root node    36582. kBytes
========================================================================

   base      :      30000. kBytes
   nonl-proj :       3074. kBytes
   fftplans  :        471. kBytes
   grid      :        608. kBytes
   one-center:          3. kBytes
   wavefun   :       2426. kBytes
 
 initial charge density was supplied:
 number of electron       3.0000000 magnetization 
 keeping initial charge density in first step


--------------------------------------------------------------------------------------------------------


 Maximum index for augmentation-charges         2019 (set IRDMAX)


--------------------------------------------------------------------------------------------------------


 First call to EWALD:  gamma=   0.695
 Maximum number of real-space cells 3x 3x 3
 Maximum number of reciprocal cells 3x 3x 3

 FEWALD executed in parallel
    FEWALD:  cpu time    0.00: real time    0.00


----------------------------------------- Iteration    1(   1)  ---------------------------------------


    POTLOK:  cpu time    0.01: real time    0.01
    SETDIJ:  cpu time    0.00: real time    0.00
     EDDAV:  cpu time    0.86: real time    0.86
       DOS:  cpu time    0.01: real time    0.01
    --------------------------------------------
      LOOP:  cpu time    0.89: real time    0.89

 eigenvalue-minimisations  :  5076
 total energy-change (2. order) :-0.2963995E+01  (-0.5435419E+02)
 number of electron       3.0000000 magnetization 
 augmentation part        3.0000000 magnetization 

 Free energy of the ion-electron system (eV)
  ---------------------------------------------------
  alpha Z        PSCENC =        -0.15332662
  Ewald energy   TEWEN  =       -73.35670894
  -1/2 Hartree   DENC   =        -0.10639426
  -exchange  EXHF       =         0.00000000
  -V(xc)+E(xc)   XCENC  =       -26.29451463
  PAW double counting   =        35.88202749       -3.84853160
  entropy T*S    EENTRO =         0.00140456
  eigenvalues    EBANDS =        11.22404195
  atomic energy  EATOM  =        53.68800704
  ---------------------------------------------------
  free energy    TOTEN  =        -2.96399501 eV

  energy without entropy =       -2.96539957  energy(sigma->0) =       -2.96446320


--------------------------------------------------------------------------------------------------------




----------------------------------------- Iteration    1(   2)  ---------------------------------------


     EDDAV:  cpu time    0.93: real time    0.93
       DOS:  cpu time    0.01: real time    0.01
    --------------------------------------------
      LOOP:  cpu time    0.94: real time    0.94

 eigenvalue-minimisations  :  5298
 total energy-change (2. order) :-0.4350613E+00  (-0.4086470E+00)
 number of electron       3.0000000 magnetization 
 augmentation part        3.0000000 magnetization 

 Free energy of the ion-electron system (eV)
  ---------------------------------------------------
  alpha Z        PSCENC =        -0.15332662
  Ewald energy   TEWEN  =       -73.35670894
  -1/2 Hartree   DENC   =        -0.10639426
  -exchange  EXHF       =         0.00000000
  -V(xc)+E(xc)   XCENC  =       -26.29451463
  PAW double counting   =        35.88202749       -3.84853160
  entropy T*S    EENTRO =        -0.00131105
  eigenvalues    EBANDS =        10.79169627
  atomic energy  EATOM  =        53.68800704
  ---------------------------------------------------
  free energy    TOTEN  =        -3.39905631 eV

  energy without entropy =       -3.39774525  energy(sigma->0) =       -3.39861929


--------------------------------------------------------------------------------------------------------




----------------------------------------- Iteration    1(   3)  ---------------------------------------


     EDDAV:  cpu time    0.91: real time    0.92
       DOS:  cpu time    0.01: real time    0.01
    --------------------------------------------
      LOOP:  cpu time    0.92: real time    0.93

 eigenvalue-minimisations  :  4902
 total energy-change (2. order) :-0.1768067E-02  (-0.1766273E-02)
 number of electron       3.0000000 magnetization 
 augmentation part        3.0000000 magnetization 

 Free energy of the ion-electron system (eV)
  ---------------------------------------------------
  alpha Z        PSCENC =        -0.15332662
  Ewald energy   TEWEN  =       -73.35670894
  -1/2 Hartree   DENC   =        -0.10639426
  -exchange  EXHF       =         0.00000000
  -V(xc)+E(xc)   XCENC  =       -26.29451463
  PAW double counting   =        35.88202749       -3.84853160
  entropy T*S    EENTRO =        -0.00131068
  eigenvalues    EBANDS =        10.78992782
  atomic energy  EATOM  =        53.68800704
  ---------------------------------------------------
  free energy    TOTEN  =        -3.40082437 eV

  energy without entropy =       -3.39951370  energy(sigma->0) =       -3.40038748


--------------------------------------------------------------------------------------------------------




----------------------------------------- Iteration    1(   4)  ---------------------------------------


     EDDAV:  cpu time    0.97: real time    0.97
       DOS:  cpu time    0.01: real time    0.01
    --------------------------------------------
      LOOP:  cpu time    0.98: real time    0.99

 eigenvalue-minimisations  :  5304
 total energy-change (2. order) :-0.1692464E-05  (-0.1692543E-05)
 number of electron       3.0000000 magnetization 
 augmentation part        3.0000000 magnetization 

 Free energy of the ion-electron system (eV)
  ---------------------------------------------------
  alpha Z        PSCENC =        -0.15332662
  Ewald energy   TEWEN  =       -73.35670894
  -1/2 Hartree   DENC   =        -0.10639426
  -exchange  EXHF       =         0.00000000
  -V(xc)+E(xc)   XCENC  =       -26.29451463
  PAW double counting   =        35.88202749       -3.84853160
  entropy T*S    EENTRO =        -0.00131067
  eigenvalues    EBANDS =        10.78992613
  atomic energy  EATOM  =        53.68800704
  ---------------------------------------------------
  free energy    TOTEN  =        -3.40082607 eV

  energy without entropy =       -3.39951539  energy(sigma->0) =       -3.40038917


--------------------------------------------------------------------------------------------------------




----------------------------------------- Iteration    1(   5)  ---------------------------------------


     EDDAV:  cpu time    0.85: real time    0.85
       DOS:  cpu time    0.01: real time    0.01
    --------------------------------------------
      LOOP:  cpu time    0.86: real time    0.87

 eigenvalue-minimisations  :  4782
 total energy-change (2. order) :-0.2326829E-08  (-0.2505999E-08)
 number of electron       3.0000000 magnetization 
 augmentation part        3.0000000 magnetization 

 Free energy of the ion-electron system (eV)
  ---------------------------------------------------
  alpha Z        PSCENC =        -0.15332662
  Ewald energy   TEWEN  =       -73.35670894
  -1/2 Hartree   DENC   =        -0.10639426
  -exchange  EXHF       =         0.00000000
  -V(xc)+E(xc)   XCENC  =       -26.29451463
  PAW double counting   =        35.88202749       -3.84853160
  entropy T*S    EENTRO =        -0.00131067
  eigenvalues    EBANDS =        10.78992613
  atomic energy  EATOM  =        53.68800704
  ---------------------------------------------------
  free energy    TOTEN  =        -3.40082607 eV

  energy without entropy =       -3.39951539  energy(sigma->0) =       -3.40038918


--------------------------------------------------------------------------------------------------------




----------------------------------------- Iteration    1(   6)  ---------------------------------------


     EDDAV:  cpu time    0.86: real time    0.86
       DOS:  cpu time    0.01: real time    0.01
    --------------------------------------------
      LOOP:  cpu time    0.87: real time    0.88

 eigenvalue-minimisations  :  4794
 total energy-change (2. order) : 0.7659793E-09  (-0.4749295E-10)
 number of electron       3.0000000 magnetization 
 augmentation part        3.0000000 magnetization 

 Free energy of the ion-electron system (eV)
  ---------------------------------------------------
  alpha Z        PSCENC =        -0.15332662
  Ewald energy   TEWEN  =       -73.35670894
  -1/2 Hartree   DENC   =        -0.10639426
  -exchange  EXHF       =         0.00000000
  -V(xc)+E(xc)   XCENC  =       -26.29451463
  PAW double counting   =        35.88202749       -3.84853160
  entropy T*S    EENTRO =        -0.00131067
  eigenvalues    EBANDS =        10.78992613
  atomic energy  EATOM  =        53.68800704
  ---------------------------------------------------
  free energy    TOTEN  =        -3.40082607 eV

  energy without entropy =       -3.39951539  energy(sigma->0) =       -3.40038918


--------------------------------------------------------------------------------------------------------




 average (electrostatic) potential at core
  the test charge radii are     1.0406
  (the norm of the test charge is              1.0000)
       1 -72.3022
 
 
 
 E-fermi :   7.1271     XC(G=0): -10.1858     alpha+bet :-14.7760


 k-point   1 :       0.5000    0.5000    0.5000
  band No.  band energies     occupation 
      1       3.3507      2.00000
      2       3.5263      2.00000
      3      19.1913      0.00000
      4      19.1913      0.00000
      5      19.3864      0.00000
      6      19.3864      0.00000

 k-point   2 :       0.4968    0.5064    0.4968
  band No.  band energies     occupation 
      1       3.3527      2.00000
      2       3.5285      2.00000
      3      19.0463      0.00000
      4      19.0678      0.00000
      5      19.4863      0.00000
      6      19.5139      0.00000

 k-point   3 :       0.4936    0.5128    0.4936
  band No.  band energies     occupation 
      1       3.3589      2.00000
      2       3.5350      2.00000
      3      18.8000      0.00000
      4      18.8838      0.00000
      5      19.5995      0.00000
      6      19.7095      0.00000

 k-point   4 :       0.4904    0.5192    0.4904
  band No.  band energies     occupation 
      1       3.3692      2.00000
      2       3.5459      2.00000
      3      18.5177      0.00000
      4      18.6967      0.00000
      5      19.6679      0.00000
      6      19.9160      0.00000

 k-point   5 :       0.4872    0.5256    0.4872
  band No.  band energies     occupation 
      1       3.3836      2.00000
      2       3.5611      2.00000
      3      18.2116      0.00000
      4      18.5117      0.00000
      5      19.6898      0.00000
      6      20.1283      0.00000

 k-point   6 :       0.4840    0.5321    0.4840
  band No.  band energies     occupation 
      1       3.4022      2.00000
      2       3.5807      2.00000
      3      17.8887      0.00000
      4      18.3298      0.00000
      5      19.6711      0.00000
      6      20.3452      0.00000

 k-point   7 :       0.4808    0.5385    0.4808
  band No.  band energies     occupation 
      1       3.4248      2.00000
      2       3.6046      2.00000
      3      17.5541      0.00000
      4      18.1515      0.00000
      5      19.6194      0.00000
      6      20.5664      0.00000

 k-point   8 :       0.4776    0.5449    0.4776
  band No.  band energies     occupation 
      1       3.4516      2.00000
      2       3.6328      2.00000
      3      17.2112      0.00000
      4      17.9768      0.00000
      5      19.5426      0.00000
      6      20.7917      0.00000

 k-point   9 :       0.4744    0.5513    0.4744
  band No.  band energies     occupation 
      1       3.4825      2.00000
      2       3.6645      2.00000
      3      16.8622      0.00000
      4      17.8055      0.00000
      5      19.4452      0.00000
      6      21.0197      0.00000

 k-point  10 :       0.4712    0.5577    0.4712
  band No.  band energies     occupation 
      1       3.5175      2.00000
      2       3.7014      2.00000
      3      16.5102      0.00000
      4      17.6384      0.00000
      5      19.3360      0.00000
      6      21.2529      0.00000

 k-point  11 :       0.4679    0.5641    0.4679
  band No.  band energies     occupation 
      1       3.5566      2.00000
      2       3.7426      2.00000
      3      16.1591      0.00000
      4      17.4751      0.00000
      5      19.2183      0.00000
      6      21.4900      0.00000

 k-point  12 :       0.4647    0.5705    0.4647
  band No.  band energies     occupation 
      1       3.5998      2.00000
      2       3.7876      2.00000
      3      15.8036      0.00000
      4      17.3156      0.00000
      5      19.0920      0.00000
      6      21.7309      0.00000

 k-point  13 :       0.4615    0.5769    0.4615
  band No.  band energies     occupation 
      1       3.6472      2.00000
      2       3.8373      2.00000
      3      15.4483      0.00000
      4      17.1600      0.00000
      5      18.9620      0.00000
      6      21.9758      0.00000

 k-point  14 :       0.4583    0.5833    0.4583
  band No.  band energies     occupation 
      1       3.6986      2.00000
      2       3.8913      2.00000
      3      15.0937      0.00000
      4      17.0083      0.00000
      5      18.8292      0.00000
      6      22.2244      0.00000

 k-point  15 :       0.4551    0.5897    0.4551
  band No.  band energies     occupation 
      1       3.7543      2.00000
      2       3.9496      2.00000
      3      14.7403      0.00000
      4      16.8604      0.00000
      5      18.6951      0.00000
      6      22.4769      0.00000

 k-point  16 :       0.4519    0.5962    0.4519
  band No.  band energies     occupation 
      1       3.8139      2.00000
      2       4.0120      2.00000
      3      14.3886      0.00000
      4      16.7164      0.00000
      5      18.5605      0.00000
      6      22.7331      0.00000

 k-point  17 :       0.4487    0.6026    0.4487
  band No.  band energies     occupation 
      1       3.8777      2.00000
      2       4.0786      2.00000
      3      14.0388      0.00000
      4      16.5763      0.00000
      5      18.4263      0.00000
      6      22.9931      0.00000

 k-point  18 :       0.4455    0.6090    0.4455
  band No.  band energies     occupation 
      1       3.9455      2.00000
      2       4.1493      2.00000
      3      13.6915      0.00000
      4      16.4400      0.00000
[...]
  band No.  band energies     occupation 
      1      -3.1617      2.00000
      2      20.0586      0.00000
      3      20.4517      0.00000
      4      20.4517      0.00000
      5      21.9974      0.00000
      6      21.9987      0.00000

 k-point 279 :       0.0128    0.0128    0.0128
  band No.  band energies     occupation 
      1      -3.1750      2.00000
      2      20.3996      0.00000
      3      20.5183      0.00000
      4      20.5183      0.00000
      5      21.9098      0.00000
      6      21.9099      0.00000

 k-point 280 :       0.0000    0.0000    0.0000
  band No.  band energies     occupation 
      1      -3.1795      2.00000
      2      20.5425      0.00000
      3      20.5425      0.00000
      4      20.5425      0.00000
      5      21.8786      0.00000
      6      21.8787      0.00000

 k-point 281 :       0.0000    0.0000    0.0000
  band No.  band energies     occupation 
      1      -3.1795      2.00000
      2      20.5425      0.00000
      3      20.5425      0.00000
      4      20.5425      0.00000
      5      21.8786      0.00000
      6      21.8787      0.00000

 k-point 282 :       0.0096    0.0192    0.0096
  band No.  band energies     occupation 
      1      -3.1728      2.00000
      2      20.3717      0.00000
      3      20.4271      0.00000
      4      20.5490      0.00000
      5      21.8836      0.00000
      6      21.9871      0.00000

 k-point 283 :       0.0192    0.0385    0.0192
  band No.  band energies     occupation 
      1      -3.1528      2.00000
      2      19.9797      0.00000
      3      20.1495      0.00000
      4      20.5686      0.00000
      5      21.8956      0.00000
      6      22.2252      0.00000

 k-point 284 :       0.0288    0.0577    0.0288
  band No.  band energies     occupation 
      1      -3.1195      2.00000
      2      19.4989      0.00000
      3      19.7961      0.00000
      4      20.6011      0.00000
      5      21.9166      0.00000
      6      22.4451      0.00000

 k-point 285 :       0.0385    0.0769    0.0385
  band No.  band energies     occupation 
      1      -3.0729      2.00000
      2      18.9724      0.00000
      3      19.4026      0.00000
      4      20.6458      0.00000
      5      21.9447      0.00000
      6      22.6199      0.00000

 k-point 286 :       0.0481    0.0962    0.0481
  band No.  band energies     occupation 
      1      -3.0129      2.00000
      2      18.4421      0.00000
      3      18.9944      0.00000
      4      20.7043      0.00000
      5      21.9807      0.00000
      6      22.7661      0.00000

 k-point 287 :       0.0577    0.1154    0.0577
  band No.  band energies     occupation 
      1      -2.9397      2.00000
      2      17.9074      0.00000
      3      18.5715      0.00000
      4      20.7734      0.00000
      5      22.0220      0.00000
      6      22.8901      0.00000

 k-point 288 :       0.0673    0.1346    0.0673
  band No.  band energies     occupation 
      1      -2.8531      2.00000
      2      17.3745      0.00000
      3      18.1444      0.00000
      4      20.8578      0.00000
      5      22.0683      0.00000
      6      23.0060      0.00000

 k-point 289 :       0.0769    0.1538    0.0769
  band No.  band energies     occupation 
      1      -2.7533      2.00000
      2      16.8466      0.00000
      3      17.7131      0.00000
      4      20.9552      0.00000
      5      22.1154      0.00000
      6      23.1199      0.00000

 k-point 290 :       0.0865    0.1731    0.0865
  band No.  band energies     occupation 
      1      -2.6403      2.00000
      2      16.3257      0.00000
      3      17.2798      0.00000
      4      21.0655      0.00000
      5      22.1569      0.00000
      6      23.2362      0.00000

 k-point 291 :       0.0962    0.1923    0.0962
  band No.  band energies     occupation 
      1      -2.5139      2.00000
      2      15.8163      0.00000
      3      16.8494      0.00000
      4      21.1900      0.00000
      5      22.1800      0.00000
      6      23.3589      0.00000

 k-point 292 :       0.1058    0.2115    0.1058
  band No.  band energies     occupation 
      1      -2.3745      2.00000
      2      15.3129      0.00000
      3      16.4166      0.00000
      4      21.3262      0.00000
      5      22.1582      0.00000
      6      23.4998      0.00000

 k-point 293 :       0.1154    0.2308    0.1154
  band No.  band energies     occupation 
      1      -2.2220      2.00000
      2      14.8193      0.00000
      3      15.9859      0.00000
      4      21.4752      0.00000
      5      22.0504      0.00000
      6      23.3487      0.00000

 k-point 294 :       0.1250    0.2500    0.1250
  band No.  band energies     occupation 
      1      -2.0564      2.00000
      2      14.3369      0.00000
      3      15.5592      0.00000
      4      21.6371      0.00000
      5      21.8306      0.00000
      6      23.2502      0.00000

 k-point 295 :       0.1346    0.2692    0.1346
  band No.  band energies     occupation 
      1      -1.8778      2.00000
      2      13.8684      0.00000
      3      15.1374      0.00000
      4      21.5234      0.00000
      5      21.8118      0.00000
      6      23.2580      0.00000

 k-point 296 :       0.1442    0.2885    0.1442
  band No.  band energies     occupation 
      1      -1.6862      2.00000
      2      13.4083      0.00000
      3      14.7203      0.00000
      4      21.1704      0.00000
      5      21.9993      0.00000
      6      23.2355      0.00000

 k-point 297 :       0.1538    0.3077    0.1538
  band No.  band energies     occupation 
      1      -1.4817      2.00000
      2      12.9599      0.00000
      3      14.3092      0.00000
      4      20.7982      0.00000
      5      22.1996      0.00000
      6      22.8601      0.00000

 k-point 298 :       0.1635    0.3269    0.1635
  band No.  band energies     occupation 
      1      -1.2643      2.00000
      2      12.5233      0.00000
      3      13.9048      0.00000
      4      20.4206      0.00000
      5      22.4126      0.00000
      6      22.4751      0.00000

 k-point 299 :       0.1731    0.3462    0.1731
  band No.  band energies     occupation 
      1      -1.0341      2.00000
      2      12.0987      0.00000
      3      13.5075      0.00000
      4      20.0443      0.00000
      5      22.0989      0.00000
      6      22.6382      0.00000

 k-point 300 :       0.1827    0.3654    0.1827
  band No.  band energies     occupation 
      1      -0.7911      2.00000
      2      11.6862      0.00000
      3      13.1179      0.00000
      4      19.6732      0.00000
      5      21.7273      0.00000
      6      22.8765      0.00000

 k-point 301 :       0.1923    0.3846    0.1923
  band No.  band energies     occupation 
      1      -0.5355      2.00000
      2      11.2859      0.00000
      3      12.7365      0.00000
      4      19.3094      0.00000
      5      21.3611      0.00000
      6      23.1273      0.00000

 k-point 302 :       0.2019    0.4038    0.2019
  band No.  band energies     occupation 
      1      -0.2672      2.00000
      2      10.8978      0.00000
      3      12.3637      0.00000
      4      18.9542      0.00000
      5      21.0015      0.00000
      6      23.3906      0.00000

 k-point 303 :       0.2115    0.4231    0.2115
  band No.  band energies     occupation 
      1       0.0136      2.00000
      2      10.5219      0.00000
      3      11.9999      0.00000
      4      18.6084      0.00000
      5      20.6489      0.00000
      6      23.6663      0.00000

 k-point 304 :       0.2212    0.4423    0.2212
  band No.  band energies     occupation 
      1       0.3068      2.00000
      2      10.1584      0.00000
      3      11.6455      0.00000
      4      18.2726      0.00000
      5      20.3039      0.00000
      6      23.9543      0.00000

 k-point 305 :       0.2308    0.4615    0.2308
  band No.  band energies     occupation 
      1       0.6125      2.00000
      2       9.8077      0.00000
      3      11.3011      0.00000
      4      17.9508      0.00000
      5      19.9696      0.00000
      6      24.2699      0.00000

 k-point 306 :       0.2404    0.4808    0.2404
  band No.  band energies     occupation 
      1       0.9309      2.00000
      2       9.4688      0.00000
      3      10.9664      0.00000
      4      17.6369      0.00000
      5      19.6414      0.00000
      6      24.5825      0.00000

 k-point 307 :       0.2500    0.5000    0.2500
  band No.  band energies     occupation 
      1       1.2611      2.00000
      2       9.1424      0.00000
      3      10.6418      0.00000
      4      17.3329      0.00000
      5      19.3222      0.00000
      6      24.9070      0.00000

 k-point 308 :       0.2596    0.5192    0.2596
  band No.  band energies     occupation 
      1       1.6034      2.00000
      2       8.8283      0.00000
      3      10.3277      0.00000
      4      17.0400      0.00000
      5      19.0125      0.00000
      6      25.2439      0.00000

 k-point 309 :       0.2692    0.5385    0.2692
  band No.  band energies     occupation 
      1       1.9578      2.00000
      2       8.5266      0.00000
      3      10.0244      0.00000
      4      16.7584      0.00000
      5      18.7124      0.00000
      6      25.5919      0.00000

 k-point 310 :       0.2788    0.5577    0.2788
  band No.  band energies     occupation 
      1       2.3246      2.00000
      2       8.2374      0.00000
      3       9.7321      0.00000
      4      16.4881      0.00000
      5      18.4223      0.00000
      6      25.9567      0.00000

 k-point 311 :       0.2885    0.5769    0.2885
  band No.  band energies     occupation 
      1       2.7026      2.00000
      2       7.9605      0.00000
      3       9.4511      0.00000
      4      16.2292      0.00000
      5      18.1424      0.00000
      6      26.3247      0.00000

 k-point 312 :       0.2981    0.5962    0.2981
  band No.  band energies     occupation 
      1       3.0918      2.00000
      2       7.6957     -0.00044
      3       9.1814      0.00000
      4      15.9811      0.00000
      5      17.8717      0.00000
      6      26.7080      0.00000

 k-point 313 :       0.3077    0.6154    0.3077
  band No.  band energies     occupation 
      1       3.4927      2.00000
      2       7.4436     -0.04772
      3       8.9235      0.00000
      4      15.7452      0.00000
      5      17.6125      0.00000
      6      27.0966      0.00000

 k-point 314 :       0.3173    0.6346    0.3173
  band No.  band energies     occupation 
      1       3.9049      2.00000
      2       7.2039      0.40009
      3       8.6775      0.00000
      4      15.5208      0.00000
      5      17.3641      0.00000
      6      27.5080      0.00000

 k-point 315 :       0.3269    0.6538    0.3269
  band No.  band energies     occupation 
      1       4.3279      2.00000
      2       6.9765      1.95397
      3       8.4438      0.00000
      4      15.3079      0.00000
      5      17.1265      0.00000
      6      26.9926      0.00000

 k-point 316 :       0.3365    0.6731    0.3365
  band No.  band energies     occupation 
      1       4.7614      2.00000
      2       6.7616      2.02680
      3       8.2227      0.00000
      4      15.1087      0.00000
      5      16.8981      0.00000
      6      26.3239      0.00000

 k-point 317 :       0.3462    0.6923    0.3462
  band No.  band energies     occupation 
      1       5.2047      2.00000
      2       6.5589      2.00044
      3       8.0148      0.00000
      4      14.9186      0.00000
      5      16.6820      0.00000
      6      25.6401      0.00000

 k-point 318 :       0.3558    0.7115    0.3558
  band No.  band energies     occupation 
      1       5.6566      2.00000
      2       6.3685      2.00000
      3       7.8212     -0.00001
      4      14.7401      0.00000
      5      16.4768      0.00000
      6      24.9433      0.00000

 k-point 319 :       0.3654    0.7308    0.3654
  band No.  band energies     occupation 
      1       6.1140      2.00000
      2       6.1905      2.00000
      3       7.6450     -0.00154
      4      14.5732      0.00000
      5      16.2822      0.00000
      6      24.2406      0.00000

 k-point 320 :       0.3750    0.7500    0.3750
  band No.  band energies     occupation 
      1       6.0248      2.00000
      2       6.5667      2.00054
      3       7.4961     -0.02551
      4      14.4178      0.00000
      5      16.0979      0.00000
      6      23.5372      0.00000


--------------------------------------------------------------------------------------------------------


 soft charge-density along one line, spin component           1
         0         1         2         3         4         5         6         7         8         9
 total charge-density along one line
 
 pseudopotential strength for first ion, spin component:           1
  8.547   0.000  -0.006   0.000   0.000   0.000   0.000   0.000   0.000   0.000   0.000   0.000   0.000   0.000   0.000   0.000
 -0.006   0.000   0.000   0.000   0.000   0.000   0.000   0.000   0.000   0.000   0.000   0.000   0.000   0.000   0.000   0.000
  0.000   0.000   0.000   0.000   2.015   0.000   0.000   0.000   0.000   0.000  -0.026   0.000   0.000   0.000   0.000   0.000
  0.000   0.000   0.000   0.000   0.000   0.000   2.015   0.000   0.000   0.000   0.000   0.000  -0.026   0.000   0.000   0.000
  0.000   0.000   0.000   0.000   0.000   0.000   0.000   0.000   2.015   0.000   0.000   0.000   0.000   0.000  -0.026   0.000
  0.000   0.000   0.000   0.000  -0.026   0.000   0.000   0.000   0.000   0.000  -0.012   0.000   0.000   0.000   0.000   0.000
  0.000   0.000   0.000   0.000   0.000   0.000  -0.026   0.000   0.000   0.000   0.000   0.000  -0.012   0.000   0.000   0.000
  0.000   0.000   0.000   0.000   0.000   0.000   0.000   0.000  -0.026   0.000   0.000   0.000   0.000   0.000  -0.012   0.000
 total augmentation occupancy for first ion, spin component:           1
  2.000   0.000   0.000   0.000   0.000   0.000   0.000   0.000
  0.000   0.000   0.000   0.000   0.000   0.000   0.000   0.000
  0.000   0.000   0.333   0.000   0.000   0.000   0.000   0.000
  0.000   0.000   0.000   0.333   0.000   0.000   0.000   0.000
  0.000   0.000   0.000   0.000   0.333   0.000   0.000   0.000
  0.000   0.000   0.000   0.000   0.000   0.000   0.000   0.000
  0.000   0.000   0.000   0.000   0.000   0.000   0.000   0.000
  0.000   0.000   0.000   0.000   0.000   0.000   0.000   0.000


------------------------ aborting loop because EDIFF is reached ----------------------------------------


 


 total charge     
 
# of ion     s       p       d       tot
----------------------------------------
  1        0.390   0.380   0.000   0.770
 
    CHARGE:  cpu time    0.03: real time    0.03
    FORLOC:  cpu time    0.00: real time    0.00
    FORNL :  cpu time    0.02: real time    0.02
    STRESS:  cpu time    0.32: real time    0.32
    FORCOR:  cpu time    0.01: real time    0.01
    FORHAR:  cpu time    0.00: real time    0.00
    FORVDW:  cpu time    0.00: real time    0.00

  FORCE on cell =-STRESS in cart. coord.  units (eV):
  Direction    XX          YY          ZZ          XY          YZ          ZX
  --------------------------------------------------------------------------------------
  Alpha Z    -0.15333    -0.15333    -0.15333
  Ewald     -24.45224   -24.45224   -24.45224     0.00000     0.00000     0.00000
  Hartree     0.04380     0.04380     0.04380     0.00000     0.00000     0.00000
  E(xc)      -8.60632    -8.60632    -8.60632     0.00002     0.00002     0.00002
  Local       0.34696     0.34696     0.34696     0.00000     0.00000     0.00000
  n-local    17.87620    19.25168    17.42005    -0.30450    -0.30828    -0.22153
  augment    -0.86132    -0.86132    -0.86132     0.00000     0.00000     0.00000
  Kinetic    21.86207    13.43363    10.42402     4.02373     4.62190     8.89776
  Fock        0.00000     0.00000     0.00000     0.00000     0.00000     0.00000
  -------------------------------------------------------------------------------------
  Total      -0.25990    -0.25990    -0.25990     0.00000     0.00000     0.00000
  in kB     -25.07298   -25.07298   -25.07298     0.00000     0.00000     0.00000
  external pressure =      -25.07 kB  Pullay stress =        0.00 kB


 VOLUME and BASIS-vectors are now :
 -----------------------------------------------------------------------------
  energy-cutoff  :      240.44
  volume of cell :       16.61
      direct lattice vectors                 reciprocal lattice vectors
     0.000000000  2.025000000  2.025000000    -0.246913580  0.246913580  0.246913580
     2.025000000  0.000000000  2.025000000     0.246913580 -0.246913580  0.246913580
     2.025000000  2.025000000  0.000000000     0.246913580  0.246913580 -0.246913580

  length of vectors
     2.863782464  2.863782464  2.863782464     0.427666866  0.427666866  0.427666866


 FORCES acting on ions
    electron-ion (+dipol)            ewald-force                    non-local-force                 convergence-correction
 -----------------------------------------------------------------------------------------------
   0.221E-15 0.643E-15 0.482E-15   -.758E-16 -.122E-15 -.249E-16   -.155E-24 0.517E-25 0.103E-24   0.810E-18 -.974E-18 0.146E-18
 -----------------------------------------------------------------------------------------------
   0.221E-15 0.643E-15 0.482E-15   -.758E-16 -.122E-15 -.249E-16   -.155E-24 0.517E-25 0.103E-24   0.810E-18 -.974E-18 0.146E-18
 
 
 POSITION                                       TOTAL-FORCE (eV/Angst)
 -----------------------------------------------------------------------------------
      0.00000      0.00000      0.00000         0.000000      0.000000      0.000000
 -----------------------------------------------------------------------------------
    total drift:                                0.000000      0.000000      0.000000


--------------------------------------------------------------------------------------------------------



  FREE ENERGIE OF THE ION-ELECTRON SYSTEM (eV)
  ---------------------------------------------------
  free  energy   TOTEN  =        -3.40082607 eV

  energy  without entropy=       -3.39951539  energy(sigma->0) =       -3.40038918
 


--------------------------------------------------------------------------------------------------------


    POTLOK:  cpu time    0.02: real time    0.02


--------------------------------------------------------------------------------------------------------


     LOOP+:  cpu time    5.92: real time    5.97
    4ORBIT:  cpu time    0.00: real time    0.00
 


 total charge     
 
# of ion     s       p       d       tot
----------------------------------------
  1        0.390   0.380   0.000   0.770
 

 total amount of memory used by VASP on root node    36582. kBytes
========================================================================

   base      :      30000. kBytes
   nonl-proj :       3074. kBytes
   fftplans  :        471. kBytes
   grid      :        608. kBytes
   one-center:          3. kBytes
   wavefun   :       2426. kBytes
 
  
  
 General timing and accounting informations for this job:
 ========================================================
  
                  Total CPU time used (sec):        6.641
                            User time (sec):        6.197
                          System time (sec):        0.444
                         Elapsed time (sec):        6.723
  
                   Maximum memory used (kb):       45380.
                   Average memory used (kb):           0.
  
                          Minor page faults:        14841
                          Major page faults:            0
                 Voluntary context switches:         1114
