PROCAR new format
# of k-points:  320         # of bands:   6         # of ions:   1

 k-point    1 :    0.50000000 0.50000000 0.50000000     weight = 0.00312500

band   1 # energy    3.35066981 # occ.  2.00000000
 
ion      s      p      d    tot
  1  0.000  0.219  0.000  0.219
 
band   2 # energy    3.52633959 # occ.  2.00000000
 
ion      s      p      d    tot
  1  0.321  0.000  0.000  0.321
 
band   3 # energy   19.19132908 # occ.  0.00000000
 
ion      s      p      d    tot
  1  0.000  0.481  0.000  0.481
 
band   4 # energy   19.19132908 # occ.  0.00000000
 
ion      s      p      d    tot
  1  0.000  0.481  0.000  0.481
 
band   5 # energy   19.38638214 # occ.  0.00000000
 
ion      s      p      d    tot
  1  0.000  0.000  0.000  0.000
 
band   6 # energy   19.38638214 # occ.  0.00000000
 
ion      s      p      d    tot
  1  0.000  0.000  0.000  0.000
 

 k-point    2 :    0.49679487 0.50641026 0.49679487     weight = 0.00312500

band   1 # energy    3.35272961 # occ.  2.00000000
 
ion      s      p      d    tot
  1  0.000  0.219  0.000  0.219
 
band   2 # energy    3.52851551 # occ.  2.00000000
 
ion      s      p      d    tot
  1  0.321  0.000  0.000  0.321
 
band   3 # energy   19.04632358 # occ.  0.00000000
 
ion      s      p      d    tot
  1  0.001  0.343  0.000  0.345
 
band   4 # energy   19.06775163 # occ.  0.00000000
 
ion      s      p      d    tot
  1  0.000  0.349  0.000  0.349
 
band   5 # energy   19.48625455 # occ.  0.00000000
 
ion      s      p      d    tot
  1  0.001  0.135  0.000  0.136
 
band   6 # energy   19.51385197 # occ.  0.00000000
 
ion      s      p      d    tot
  1  0.000  0.132  0.000  0.132
 

 k-point    3 :    0.49358974 0.51282051 0.49358974     weight = 0.00312500

band   1 # energy    3.35890907 # occ.  2.00000000
 
ion      s      p      d    tot
  1  0.000  0.219  0.000  0.219
 
band   2 # energy    3.53504220 # occ.  2.00000000
 
ion      s      p      d    tot
  1  0.321  0.000  0.000  0.321
 
band   3 # energy   18.80003883 # occ.  0.00000000
 
ion      s      p      d    tot
  1  0.004  0.289  0.000  0.294
 
band   4 # energy   18.88376356 # occ.  0.00000000
 
ion      s      p      d    tot
  1  0.000  0.304  0.000  0.304
 
band   5 # energy   19.59950716 # occ.  0.00000000
 
ion      s      p      d    tot
  1  0.004  0.180  0.000  0.184
 
band   6 # energy   19.70951881 # occ.  0.00000000
 
ion      s      p      d    tot
  1  0.000  0.177  0.000  0.177
 

 k-point    4 :    0.49038462 0.51923077 0.49038462     weight = 0.00312500

band   1 # energy    3.36920823 # occ.  2.00000000
 
ion      s      p      d    tot
  1  0.000  0.219  0.000  0.219
 
band   2 # energy    3.54591812 # occ.  2.00000000
 
ion      s      p      d    tot
  1  0.320  0.001  0.000  0.321
 
band   3 # energy   18.51768010 # occ.  0.00000000
 
ion      s      p      d    tot
  1  0.008  0.265  0.000  0.273
 
band   4 # energy   18.69673943 # occ.  0.00000000
 
ion      s      p      d    tot
  1  0.000  0.289  0.000  0.289
 
band   5 # energy   19.66788320 # occ.  0.00000000
 
ion      s      p      d    tot
  1  0.010  0.191  0.000  0.201
 
band   6 # energy   19.91601076 # occ.  0.00000000
 
ion      s      p      d    tot
  1  0.000  0.192  0.000  0.192
 

 k-point    5 :    0.48717949 0.52564103 0.48717949     weight = 0.00312500

band   1 # energy    3.38362683 # occ.  2.00000000
 
ion      s      p      d    tot
  1  0.000  0.219  0.000  0.219
 
band   2 # energy    3.56114018 # occ.  2.00000000
 
ion      s      p      d    tot
  1  0.320  0.001  0.000  0.321
 
band   3 # energy   18.21158142 # occ.  0.00000000
 
ion      s      p      d    tot
  1  0.013  0.249  0.000  0.262
 
band   4 # energy   18.51172880 # occ.  0.00000000
 
ion      s      p      d    tot
  1  0.000  0.283  0.000  0.283
 
band   5 # energy   19.68980153 # occ.  0.00000000
 
ion      s      p      d    tot
  1  0.018  0.189  0.000  0.207
 
band   6 # energy   20.12827530 # occ.  0.00000000
 
ion      s      p      d    tot
  1  0.000  0.197  0.000  0.197
 

 k-point    6 :    0.48397436 0.53205128 0.48397436     weight = 0.00312500

band   1 # energy    3.40216444 # occ.  2.00000000
 
ion      s      p      d    tot
  1  0.000  0.219  0.000  0.219
 
band   2 # energy    3.58070396 # occ.  2.00000000
 
ion      s      p      d    tot
  1  0.319  0.002  0.000  0.321
 
band   3 # energy   17.88873977 # occ.  0.00000000
 
ion      s      p      d    tot
  1  0.017  0.238  0.000  0.255
 
band   4 # energy   18.32984674 # occ.  0.00000000
 
ion      s      p      d    tot
  1  0.000  0.281  0.000  0.281
 
band   5 # energy   19.67105114 # occ.  0.00000000
 
ion      s      p      d    tot
  1  0.027  0.182  0.000  0.209
 
band   6 # energy   20.34519303 # occ.  0.00000000
 
ion      s      p      d    tot
  1  0.000  0.199  0.000  0.199
 

 k-point    7 :    0.48076923 0.53846154 0.48076923     weight = 0.00312500

band   1 # energy    3.42482055 # occ.  2.00000000
 
ion      s      p      d    tot
  1  0.000  0.219  0.000  0.219
 
band   2 # energy    3.60460356 # occ.  2.00000000
 
ion      s      p      d    tot
  1  0.318  0.003  0.000  0.321
 
band   3 # energy   17.55407744 # occ.  0.00000000
 
ion      s      p      d    tot
  1  0.022  0.229  0.000  0.250
 
band   4 # energy   18.15147522 # occ.  0.00000000
 
ion      s      p      d    tot
  1  0.000  0.280  0.000  0.280
 
band   5 # energy   19.61944531 # occ.  0.00000000
 
ion      s      p      d    tot
  1  0.037  0.172  0.000  0.209
 
band   6 # energy   20.56637628 # occ.  0.00000000
 
ion      s      p      d    tot
  1  0.000  0.200  0.000  0.200
 

 k-point    8 :    0.47756410 0.54487179 0.47756410     weight = 0.00312500

band   1 # energy    3.45159445 # occ.  2.00000000
 
ion      s      p      d    tot
  1  0.000  0.219  0.000  0.219
 
band   2 # energy    3.63283177 # occ.  2.00000000
 
ion      s      p      d    tot
  1  0.317  0.004  0.000  0.321
 
band   3 # energy   17.21119039 # occ.  0.00000000
 
ion      s      p      d    tot
  1  0.026  0.221  0.000  0.247
 
band   4 # energy   17.97677948 # occ.  0.00000000
 
ion      s      p      d    tot
  1  0.000  0.280  0.000  0.280
 
band   5 # energy   19.54261322 # occ.  0.00000000
 
ion      s      p      d    tot
  1  0.047  0.161  0.000  0.208
 
band   6 # energy   20.79165268 # occ.  0.00000000
 
ion      s      p      d    tot
  1  0.000  0.199  0.000  0.199
 

 k-point    9 :    0.47435897 0.55128205 0.47435897     weight = 0.00312500

band   1 # energy    3.48248517 # occ.  2.00000000
 
ion      s      p      d    tot
  1  0.000  0.218  0.000  0.218
 
band   2 # energy    3.66453952 # occ.  2.00000000
 
ion      s      p      d    tot
  1  0.314  0.006  0.000  0.320
 
band   3 # energy   16.86223479 # occ.  0.00000000
 
ion      s      p      d    tot
  1  0.031  0.215  0.000  0.245
 
band   4 # energy   17.80550005 # occ.  0.00000000
 
ion      s      p      d    tot
  1  0.000  0.281  0.000  0.281
 
band   5 # energy   19.44522394 # occ.  0.00000000
 
ion      s      p      d    tot
  1  0.056  0.151  0.000  0.207
 
band   6 # energy   21.01967644 # occ.  0.00000000
 
ion      s      p      d    tot
  1  0.000  0.197  0.000  0.197
 

 k-point   10 :    0.47115385 0.55769231 0.47115385     weight = 0.00312500

band   1 # energy    3.51749133 # occ.  2.00000000
 
ion      s      p      d    tot
  1  0.000  0.218  0.000  0.218
 
band   2 # energy    3.70139826 # occ.  2.00000000
 
ion      s      p      d    tot
  1  0.312  0.007  0.000  0.320
 
band   3 # energy   16.51019446 # occ.  0.00000000
 
ion      s      p      d    tot
  1  0.035  0.209  0.000  0.244
 
band   4 # energy   17.63837232 # occ.  0.00000000
 
ion      s      p      d    tot
  1  0.000  0.283  0.000  0.283
 
band   5 # energy   19.33601446 # occ.  0.00000000
 
ion      s      p      d    tot
  1  0.065  0.140  0.000  0.205
 
band   6 # energy   21.25286590 # occ.  0.00000000
 
ion      s      p      d    tot
  1  0.000  0.195  0.000  0.195
 

 k-point   11 :    0.46794872 0.56410256 0.46794872     weight = 0.00312500

band   1 # energy    3.55661676 # occ.  2.00000000
 
ion      s      p      d    tot
  1  0.000  0.218  0.000  0.218
 
band   2 # energy    3.74260120 # occ.  2.00000000
 
ion      s      p      d    tot
  1  0.311  0.009  0.000  0.320
 
band   3 # energy   16.15911449 # occ.  0.00000000
 
ion      s      p      d    tot
  1  0.040  0.202  0.000  0.242
 
band   4 # energy   17.47507496 # occ.  0.00000000
 
ion      s      p      d    tot
  1  0.000  0.284  0.000  0.284
 
band   5 # energy   19.21827606 # occ.  0.00000000
 
ion      s      p      d    tot
  1  0.072  0.131  0.000  0.203
 
band   6 # energy   21.48996210 # occ.  0.00000000
 
ion      s      p      d    tot
  1  0.000  0.193  0.000  0.193
 

 k-point   12 :    0.46474359 0.57051282 0.46474359     weight = 0.00312500

band   1 # energy    3.59984465 # occ.  2.00000000
 
ion      s      p      d    tot
  1  0.000  0.217  0.000  0.217
 
band   2 # energy    3.78759779 # occ.  2.00000000
 
ion      s      p      d    tot
  1  0.308  0.011  0.000  0.319
 
band   3 # energy   15.80362899 # occ.  0.00000000
 
ion      s      p      d    tot
  1  0.045  0.198  0.000  0.243
 
band   4 # energy   17.31562396 # occ.  0.00000000
 
ion      s      p      d    tot
  1  0.000  0.286  0.000  0.286
 
band   5 # energy   19.09203023 # occ.  0.00000000
 
ion      s      p      d    tot
  1  0.080  0.122  0.000  0.202
 
band   6 # energy   21.73093518 # occ.  0.00000000
 
ion      s      p      d    tot
  1  0.000  0.190  0.000  0.190
 

 k-point   13 :    0.46153846 0.57692308 0.46153846     weight = 0.00312500

band   1 # energy    3.64718595 # occ.  2.00000000
 
ion      s      p      d    tot
  1  0.000  0.217  0.000  0.217
 
band   2 # energy    3.83730466 # occ.  2.00000000
 
ion      s      p      d    tot
  1  0.306  0.013  0.000  0.319
 
band   3 # energy   15.44833096 # occ.  0.00000000
 
ion      s      p      d    tot
  1  0.049  0.194  0.000  0.243
 
band   4 # energy   17.16002901 # occ.  0.00000000
 
ion      s      p      d    tot
  1  0.000  0.288  0.000  0.288
 
band   5 # energy   18.96196312 # occ.  0.00000000
 
ion      s      p      d    tot
  1  0.087  0.113  0.000  0.200
 
band   6 # energy   21.97576037 # occ.  0.00000000
 
ion      s      p      d    tot
  1  0.000  0.187  0.000  0.187
 

 k-point   14 :    0.45833333 0.58333333 0.45833333     weight = 0.00312500

band   1 # energy    3.69863354 # occ.  2.00000000
 
ion      s      p      d    tot
  1  0.000  0.217  0.000  0.217
 
band   2 # energy    3.89126408 # occ.  2.00000000
 
ion      s      p      d    tot
  1  0.304  0.015  0.000  0.319
 
band   3 # energy   15.09369668 # occ.  0.00000000
 
ion      s      p      d    tot
  1  0.053  0.190  0.000  0.243
 
band   4 # energy   17.00829630 # occ.  0.00000000
 
ion      s      p      d    tot
  1  0.000  0.290  0.000  0.290
 
band   5 # energy   18.82919695 # occ.  0.00000000
 
ion      s      p      d    tot
  1  0.093  0.105  0.000  0.198
 
band   6 # energy   22.22441344 # occ.  0.00000000
 
ion      s      p      d    tot
  1  0.000  0.184  0.000  0.184
 

 k-point   15 :    0.45512821 0.58974359 0.45512821     weight = 0.00312500

band   1 # energy    3.75426971 # occ.  2.00000000
 
ion      s      p      d    tot
  1  0.000  0.216  0.000  0.216
 
band   2 # energy    3.94958564 # occ.  2.00000000
 
ion      s      p      d    tot
  1  0.301  0.018  0.000  0.319
 
band   3 # energy   14.74031035 # occ.  0.00000000
 
ion      s      p      d    tot
  1  0.058  0.186  0.000  0.244
 
band   4 # energy   16.86042953 # occ.  0.00000000
 
ion      s      p      d    tot
  1  0.000  0.292  0.000  0.292
 
band   5 # energy   18.69506692 # occ.  0.00000000
 
ion      s      p      d    tot
  1  0.099  0.097  0.000  0.196
 
band   6 # energy   22.47687112 # occ.  0.00000000
 
ion      s      p      d    tot
  1  0.000  0.180  0.000  0.180
 

 k-point   16 :    0.45192308 0.59615385 0.45192308     weight = 0.00312500

band   1 # energy    3.81392772 # occ.  2.00000000
 
ion      s      p      d    tot
  1  0.000  0.216  0.000  0.216
 
band   2 # energy    4.01198894 # occ.  2.00000000
 
ion      s      p      d    tot
  1  0.299  0.020  0.000  0.319
 
band   3 # energy   14.38855890 # occ.  0.00000000
 
ion      s      p      d    tot
  1  0.062  0.183  0.000  0.245
 
band   4 # energy   16.71643067 # occ.  0.00000000
 
ion      s      p      d    tot
  1  0.000  0.294  0.000  0.294
 
band   5 # energy   18.56049245 # occ.  0.00000000
 
ion      s      p      d    tot
  1  0.104  0.090  0.000  0.194
 
band   6 # energy   22.73310797 # occ.  0.00000000
 
ion      s      p      d    tot
  1  0.000  0.177  0.000  0.177
 

 k-point   17 :    0.44871795 0.60256410 0.44871795     weight = 0.00312500

band   1 # energy    3.87767937 # occ.  2.00000000
 
ion      s      p      d    tot
  1  0.000  0.216  0.000  0.216
 
band   2 # energy    4.07857706 # occ.  2.00000000
 
ion      s      p      d    tot
  1  0.296  0.023  0.000  0.319
 
band   3 # energy   14.03884240 # occ.  0.00000000
 
ion      s      p      d    tot
  1  0.067  0.180  0.000  0.246
 
band   4 # energy   16.57630031 # occ.  0.00000000
 
ion      s      p      d    tot
  1  0.000  0.296  0.000  0.296
 
band   5 # energy   18.42629186 # occ.  0.00000000
 
ion      s      p      d    tot
  1  0.109  0.083  0.000  0.192
 
band   6 # energy   22.99309868 # occ.  0.00000000
 
ion      s      p      d    tot
  1  0.000  0.173  0.000  0.173
 

 k-point   18 :    0.44551282 0.60897436 0.44551282     weight = 0.00312500

band   1 # energy    3.94552034 # occ.  2.00000000
 
ion      s      p      d    tot
  1  0.000  0.215  0.000  0.215
 
band   2 # energy    4.14932350 # occ.  2.00000000
 
ion      s      p      d    tot
  1  0.292  0.026  0.000  0.319
 
band   3 # energy   13.69145997 # occ.  0.00000000
 
ion      s      p      d    tot
  1  0.071  0.176  0.000  0.248
 
band   4 # energy   16.44003839 # occ.  0.00000000
 
ion      s      p      d    tot
  1  0.000  0.298  0.000  0.298
 
band   5 # energy   18.29308268 # occ.  0.00000000
 
ion      s      p      d    tot
  1  0.114  0.076  0.000  0.190
 
band   6 # energy   23.25680369 # occ.  0.00000000
 
ion      s      p      d    tot
  1  0.000  0.170  0.000  0.170
 

 k-point   19 :    0.44230769 0.61538462 0.44230769     weight = 0.00312500

band   1 # energy    4.01744375 # occ.  2.00000000
 
ion      s      p      d    tot
  1  0.000  0.215  0.000  0.215
 
band   2 # energy    4.22419639 # occ.  2.00000000
 
ion      s      p      d    tot
  1  0.289  0.029  0.000  0.318
 
band   3 # energy   13.34667838 # occ.  0.00000000
 
ion      s      p      d    tot
  1  0.076  0.173  0.000  0.249
 
band   4 # energy   16.30764423 # occ.  0.00000000
 
ion      s      p      d    tot
  1  0.000  0.300  0.000  0.300
 
band   5 # energy   18.16135934 # occ.  0.00000000
 
ion      s      p      d    tot
  1  0.118  0.070  0.000  0.188
 
band   6 # energy   23.52420677 # occ.  0.00000000
 
ion      s      p      d    tot
  1  0.000  0.166  0.000  0.166
 

 k-point   20 :    0.43910256 0.62179487 0.43910256     weight = 0.00312500

band   1 # energy    4.09345352 # occ.  2.00000000
 
ion      s      p      d    tot
  1  0.000  0.214  0.000  0.214
 
band   2 # energy    4.30329931 # occ.  2.00000000
 
ion      s      p      d    tot
  1  0.285  0.033  0.000  0.317
 
band   3 # energy   13.00475805 # occ.  0.00000000
 
ion      s      p      d    tot
  1  0.081  0.170  0.000  0.251
 
band   4 # energy   16.18209989 # occ.  0.00000000
 
ion      s      p      d    tot
  1  0.000  0.300  0.000  0.300
 
band   5 # energy   18.03411959 # occ.  0.00000000
 
ion      s      p      d    tot
  1  0.123  0.064  0.000  0.187
 
band   6 # energy   23.81201239 # occ.  0.00000000
 
ion      s      p      d    tot
  1  0.000  0.167  0.000  0.167
 

 k-point   21 :    0.43589744 0.62820513 0.43589744     weight = 0.00312500

band   1 # energy    4.17351509 # occ.  2.00000000
 
ion      s      p      d    tot
  1  0.000  0.214  0.000  0.214
 
band   2 # energy    4.38630921 # occ.  2.00000000
 
ion      s      p      d    tot
  1  0.281  0.036  0.000  0.317
 
band   3 # energy   12.66584017 # occ.  0.00000000
 
ion      s      p      d    tot
  1  0.086  0.167  0.000  0.252
 
band   4 # energy   16.05723198 # occ.  0.00000000
 
ion      s      p      d    tot
  1  0.000  0.302  0.000  0.302
 
band   5 # energy   17.90645223 # occ.  0.00000000
 
ion      s      p      d    tot
  1  0.127  0.059  0.000  0.186
 
band   6 # energy   24.08725252 # occ.  0.00000000
 
ion      s      p      d    tot
  1  0.000  0.163  0.000  0.163
 

 k-point   22 :    0.43269231 0.63461538 0.43269231     weight = 0.00312500

band   1 # energy    4.25748933 # occ.  2.00000000
 
ion      s      p      d    tot
  1  0.000  0.213  0.000  0.213
 
band   2 # energy    4.47326524 # occ.  2.00000000
 
ion      s      p      d    tot
  1  0.276  0.040  0.000  0.317
 
band   3 # energy   12.33013911 # occ.  0.00000000
 
ion      s      p      d    tot
  1  0.091  0.163  0.000  0.254
 
band   4 # energy   15.93589386 # occ.  0.00000000
 
ion      s      p      d    tot
  1  0.000  0.304  0.000  0.304
 
band   5 # energy   17.78047017 # occ.  0.00000000
 
ion      s      p      d    tot
  1  0.131  0.054  0.000  0.185
 
band   6 # energy   24.36419192 # occ.  0.00000000
 
ion      s      p      d    tot
  1  0.000  0.160  0.000  0.160
 

 k-point   23 :    0.42948718 0.64102564 0.42948718     weight = 0.00312500

band   1 # energy    4.34561253 # occ.  2.00000000
 
ion      s      p      d    tot
  1  0.000  0.213  0.000  0.213
 
band   2 # energy    4.56421714 # occ.  2.00000000
 
ion      s      p      d    tot
  1  0.272  0.044  0.000  0.316
 
band   3 # energy   11.99784079 # occ.  0.00000000
 
ion      s      p      d    tot
  1  0.096  0.160  0.000  0.256
 
band   4 # energy   15.81878222 # occ.  0.00000000
 
ion      s      p      d    tot
  1  0.000  0.306  0.000  0.306
 
band   5 # energy   17.65796753 # occ.  0.00000000
 
ion      s      p      d    tot
  1  0.135  0.049  0.000  0.184
 
band   6 # energy   24.64646972 # occ.  0.00000000
 
ion      s      p      d    tot
  1  0.000  0.156  0.000  0.156
 

 k-point   24 :    0.42628205 0.64743590 0.42628205     weight = 0.00312500

band   1 # energy    4.43774447 # occ.  2.00000000
 
ion      s      p      d    tot
  1  0.000  0.212  0.000  0.212
 
band   2 # energy    4.65904710 # occ.  2.00000000
 
ion      s      p      d    tot
  1  0.267  0.049  0.000  0.315
 
band   3 # energy   11.66911472 # occ.  0.00000000
 
ion      s      p      d    tot
  1  0.102  0.156  0.000  0.258
 
band   4 # energy   15.70553721 # occ.  0.00000000
 
ion      s      p      d    tot
  1  0.000  0.308  0.000  0.308
 
band   5 # energy   17.53836398 # occ.  0.00000000
 
ion      s      p      d    tot
  1  0.138  0.045  0.000  0.182
 
band   6 # energy   24.93224022 # occ.  0.00000000
 
ion      s      p      d    tot
  1  0.000  0.152  0.000  0.152
 

 k-point   25 :    0.42307692 0.65384615 0.42307692     weight = 0.00312500

band   1 # energy    4.53385617 # occ.  2.00000000
 
ion      s      p      d    tot
  1  0.000  0.212  0.000  0.212
 
band   2 # energy    4.75767702 # occ.  2.00000000
 
ion      s      p      d    tot
  1  0.262  0.053  0.000  0.315
 
band   3 # energy   11.34413930 # occ.  0.00000000
 
ion      s      p      d    tot
  1  0.107  0.152  0.000  0.259
 
band   4 # energy   15.59615676 # occ.  0.00000000
 
ion      s      p      d    tot
  1  0.000  0.310  0.000  0.310
 
band   5 # energy   17.42181939 # occ.  0.00000000
 
ion      s      p      d    tot
  1  0.141  0.040  0.000  0.181
 
band   6 # energy   25.22140431 # occ.  0.00000000
 
ion      s      p      d    tot
  1  0.000  0.148  0.000  0.148
 

 k-point   26 :    0.41987179 0.66025641 0.41987179     weight = 0.00312500

band   1 # energy    4.63390926 # occ.  2.00000000
 
ion      s      p      d    tot
  1  0.000  0.211  0.000  0.211
 
band   2 # energy    4.86001221 # occ.  2.00000000
 
ion      s      p      d    tot
  1  0.256  0.058  0.000  0.314
 
band   3 # energy   11.02310224 # occ.  0.00000000
 
ion      s      p      d    tot
  1  0.113  0.148  0.000  0.261
 
band   4 # energy   15.49063858 # occ.  0.00000000
 
ion      s      p      d    tot
  1  0.000  0.311  0.000  0.311
 
band   5 # energy   17.30846911 # occ.  0.00000000
 
ion      s      p      d    tot
  1  0.143  0.036  0.000  0.179
 
band   6 # energy   25.51392372 # occ.  0.00000000
 
ion      s      p      d    tot
  1  0.000  0.145  0.000  0.145
 

 k-point   27 :    0.41666667 0.66666667 0.41666667     weight = 0.00312500

band   1 # energy    4.73818450 # occ.  2.00000000
 
ion      s      p      d    tot
  1  0.000  0.211  0.000  0.211
 
band   2 # energy    4.96610454 # occ.  2.00000000
 
ion      s      p      d    tot
  1  0.250  0.063  0.000  0.313
 
band   3 # energy   10.70762613 # occ.  0.00000000
 
ion      s      p      d    tot
  1  0.121  0.143  0.000  0.263
 
band   4 # energy   15.38927888 # occ.  0.00000000
 
ion      s      p      d    tot
  1  0.000  0.313  0.000  0.313
 
band   5 # energy   17.19922208 # occ.  0.00000000
 
ion      s      p      d    tot
  1  0.145  0.033  0.000  0.178
 
band   6 # energy   25.81383029 # occ.  0.00000000
 
ion      s      p      d    tot
  1  0.000  0.141  0.000  0.141
 

 k-point   28 :    0.41346154 0.67307692 0.41346154     weight = 0.00312500

band   1 # energy    4.84583439 # occ.  2.00000000
 
ion      s      p      d    tot
  1  0.000  0.211  0.000  0.211
 
band   2 # energy    5.07545310 # occ.  2.00000000
 
ion      s      p      d    tot
  1  0.243  0.069  0.000  0.312
 
band   3 # energy   10.39496695 # occ.  0.00000000
 
ion      s      p      d    tot
  1  0.127  0.138  0.000  0.265
 
band   4 # energy   15.29141942 # occ.  0.00000000
 
ion      s      p      d    tot
  1  0.000  0.315  0.000  0.315
 
band   5 # energy   17.09254790 # occ.  0.00000000
 
ion      s      p      d    tot
  1  0.148  0.029  0.000  0.177
 
band   6 # energy   26.11937469 # occ.  0.00000000
 
ion      s      p      d    tot
  1  0.000  0.143  0.000  0.143
 

 k-point   29 :    0.41025641 0.67948718 0.41025641     weight = 0.00312500

band   1 # energy    4.95731894 # occ.  2.00000000
 
ion      s      p      d    tot
  1  0.000  0.210  0.000  0.211
 
band   2 # energy    5.18808287 # occ.  2.00000000
 
ion      s      p      d    tot
  1  0.235  0.075  0.000  0.310
 
band   3 # energy   10.08715425 # occ.  0.00000000
 
ion      s      p      d    tot
  1  0.135  0.133  0.000  0.267
 
band   4 # energy   15.19743493 # occ.  0.00000000
 
ion      s      p      d    tot
  1  0.000  0.316  0.000  0.316
 
band   5 # energy   16.98939917 # occ.  0.00000000
 
ion      s      p      d    tot
  1  0.150  0.026  0.000  0.175
 
band   6 # energy   26.16906725 # occ.  0.00000000
 
ion      s      p      d    tot
  1  0.007  0.217  0.000  0.224
 

 k-point   30 :    0.40705128 0.68589744 0.40705128     weight = 0.00312500

band   1 # energy    5.07237134 # occ.  2.00000000
 
ion      s      p      d    tot
  1  0.001  0.210  0.000  0.210
 
band   2 # energy    5.30305280 # occ.  2.00000000
 
ion      s      p      d    tot
  1  0.226  0.081  0.000  0.307
 
band   3 # energy    9.78442894 # occ.  0.00000000
 
ion      s      p      d    tot
  1  0.143  0.127  0.000  0.270
 
band   4 # energy   15.10708677 # occ.  0.00000000
 
ion      s      p      d    tot
  1  0.000  0.318  0.000  0.318
 
band   5 # energy   16.88928530 # occ.  0.00000000
 
ion      s      p      d    tot
  1  0.152  0.022  0.000  0.175
 
band   6 # energy   25.94157265 # occ.  0.00000000
 
ion      s      p      d    tot
  1  0.010  0.214  0.000  0.224
 

 k-point   31 :    0.40384615 0.69230769 0.40384615     weight = 0.00312500

band   1 # energy    5.19076907 # occ.  2.00000000
 
ion      s      p      d    tot
  1  0.001  0.210  0.000  0.210
 
band   2 # energy    5.42147199 # occ.  2.00000000
 
ion      s      p      d    tot
  1  0.217  0.088  0.000  0.305
 
band   3 # energy    9.48744391 # occ.  0.00000000
 
ion      s      p      d    tot
  1  0.152  0.121  0.000  0.273
 
band   4 # energy   15.02080281 # occ.  0.00000000
 
ion      s      p      d    tot
  1  0.000  0.320  0.000  0.320
 
band   5 # energy   16.79334132 # occ.  0.00000000
 
ion      s      p      d    tot
  1  0.154  0.019  0.000  0.173
 
band   6 # energy   25.70719653 # occ.  0.00000000
 
ion      s      p      d    tot
  1  0.013  0.210  0.000  0.223
 

 k-point   32 :    0.40064103 0.69871795 0.40064103     weight = 0.00312500

band   1 # energy    5.31191403 # occ.  2.00000000
 
ion      s      p      d    tot
  1  0.001  0.210  0.000  0.211
 
band   2 # energy    5.54222399 # occ.  2.00000000
 
ion      s      p      d    tot
  1  0.205  0.096  0.000  0.302
 
band   3 # energy    9.19580748 # occ.  0.00000000
 
ion      s      p      d    tot
  1  0.161  0.113  0.000  0.275
 
band   4 # energy   14.93836705 # occ.  0.00000000
 
ion      s      p      d    tot
  1  0.000  0.321  0.000  0.321
 
band   5 # energy   16.69937687 # occ.  0.00000000
 
ion      s      p      d    tot
  1  0.156  0.017  0.000  0.174
 
band   6 # energy   25.46144509 # occ.  0.00000000
 
ion      s      p      d    tot
  1  0.017  0.206  0.000  0.222
 

 k-point   33 :    0.39743590 0.70512821 0.39743590     weight = 0.00312500

band   1 # energy    5.43591515 # occ.  2.00000000
 
ion      s      p      d    tot
  1  0.002  0.210  0.000  0.212
 
band   2 # energy    5.66486388 # occ.  2.00000000
 
ion      s      p      d    tot
  1  0.193  0.105  0.000  0.298
 
band   3 # energy    8.91280279 # occ.  0.00000000
 
ion      s      p      d    tot
  1  0.173  0.105  0.000  0.278
 
band   4 # energy   14.86087984 # occ.  0.00000000
 
ion      s      p      d    tot
  1  0.000  0.322  0.000  0.322
 
band   5 # energy   16.61082363 # occ.  0.00000000
 
ion      s      p      d    tot
  1  0.158  0.015  0.000  0.172
 
band   6 # energy   25.22096541 # occ.  0.00000000
 
ion      s      p      d    tot
  1  0.020  0.203  0.000  0.223
 

 k-point   34 :    0.39423077 0.71153846 0.39423077     weight = 0.00312500

band   1 # energy    5.56111921 # occ.  2.00000000
 
ion      s      p      d    tot
  1  0.003  0.210  0.000  0.213
 
band   2 # energy    5.78875628 # occ.  2.00000000
 
ion      s      p      d    tot
  1  0.177  0.115  0.000  0.292
 
band   3 # energy    8.63890605 # occ.  0.00000000
 
ion      s      p      d    tot
  1  0.187  0.095  0.000  0.283
 
band   4 # energy   14.78605162 # occ.  0.00000000
 
ion      s      p      d    tot
  1  0.000  0.323  0.000  0.323
 
band   5 # energy   16.52604069 # occ.  0.00000000
 
ion      s      p      d    tot
  1  0.159  0.012  0.000  0.171
 
band   6 # energy   24.97770861 # occ.  0.00000000
 
ion      s      p      d    tot
  1  0.024  0.201  0.000  0.224
 

 k-point   35 :    0.39102564 0.71794872 0.39102564     weight = 0.00312500

band   1 # energy    5.68586980 # occ.  2.00000000
 
ion      s      p      d    tot
  1  0.004  0.211  0.000  0.216
 
band   2 # energy    5.91323342 # occ.  2.00000000
 
ion      s      p      d    tot
  1  0.158  0.126  0.000  0.284
 
band   3 # energy    8.37666691 # occ.  0.00000000
 
ion      s      p      d    tot
  1  0.204  0.084  0.000  0.288
 
band   4 # energy   14.71506873 # occ.  0.00000000
 
ion      s      p      d    tot
  1  0.000  0.325  0.000  0.325
 
band   5 # energy   16.44506037 # occ.  0.00000000
 
ion      s      p      d    tot
  1  0.160  0.010  0.000  0.170
 
band   6 # energy   24.73432950 # occ.  0.00000000
 
ion      s      p      d    tot
  1  0.027  0.200  0.000  0.226
 

 k-point   36 :    0.38782051 0.72435897 0.38782051     weight = 0.00312500

band   1 # energy    5.80656240 # occ.  2.00000000
 
ion      s      p      d    tot
  1  0.006  0.214  0.000  0.220
 
band   2 # energy    6.03781259 # occ.  2.00000000
 
ion      s      p      d    tot
  1  0.135  0.138  0.000  0.273
 
band   3 # energy    8.13018100 # occ.  0.00000000
 
ion      s      p      d    tot
  1  0.224  0.070  0.000  0.294
 
band   4 # energy   14.64792889 # occ.  0.00000000
 
ion      s      p      d    tot
  1  0.000  0.326  0.000  0.326
 
band   5 # energy   16.36790905 # occ.  0.00000000
 
ion      s      p      d    tot
  1  0.161  0.008  0.000  0.170
 
band   6 # energy   24.49160378 # occ.  0.00000000
 
ion      s      p      d    tot
  1  0.030  0.198  0.000  0.229
 

 k-point   37 :    0.38461538 0.73076923 0.38461538     weight = 0.00312500

band   1 # energy    5.91611114 # occ.  2.00000000
 
ion      s      p      d    tot
  1  0.008  0.218  0.000  0.226
 
band   2 # energy    6.16286063 # occ.  2.00000000
 
ion      s      p      d    tot
  1  0.107  0.151  0.000  0.259
 
band   3 # energy    7.90616114 # occ. -0.00000053
 
ion      s      p      d    tot
  1  0.249  0.053  0.000  0.302
 
band   4 # energy   14.58462993 # occ.  0.00000000
 
ion      s      p      d    tot
  1  0.000  0.327  0.000  0.327
 
band   5 # energy   16.29460732 # occ.  0.00000000
 
ion      s      p      d    tot
  1  0.162  0.007  0.000  0.169
 
band   6 # energy   24.25012008 # occ.  0.00000000
 
ion      s      p      d    tot
  1  0.034  0.197  0.000  0.231
 

 k-point   38 :    0.38141026 0.73717949 0.38141026     weight = 0.00312500

band   1 # energy    6.00157093 # occ.  2.00000000
 
ion      s      p      d    tot
  1  0.008  0.225  0.000  0.233
 
band   2 # energy    6.29051980 # occ.  2.00000006
 
ion      s      p      d    tot
  1  0.078  0.164  0.000  0.241
 
band   3 # energy    7.71541605 # occ. -0.00025767
 
ion      s      p      d    tot
  1  0.278  0.034  0.000  0.312
 
band   4 # energy   14.52516974 # occ.  0.00000000
 
ion      s      p      d    tot
  1  0.000  0.328  0.000  0.328
 
band   5 # energy   16.22517020 # occ.  0.00000000
 