<?xml version="1.0" encoding="ISO-8859-1"?>
<modeling>
 <generator>
  <i name="program" type="string">vasp </i>
  <i name="version" type="string">5.3.2  </i>
  <i name="subversion" type="string">13Sep12 (build Jun 30 2016 14:08:18) complex                          parallel </i>
  <i name="platform" type="string">LinuxIFC </i>
  <i name="date" type="string">2017 11 06 </i>
  <i name="time" type="string">18:56:16 </i>
 </generator>
 <incar>
  <i type="string" name="SYSTEM"> Al</i>
  <i type="string" name="PREC">normal</i>
  <i type="int" name="ICHARG">    11</i>
  <i name="EDIFF">      0.00000100</i>
  <v name="RWIGS">      1.40200000</v>
  <i type="logical" name="LWAVE"> F  </i>
  <i type="logical" name="LCHARG"> F  </i>
  <i type="logical" name="LORBIT"> F  </i>
 </incar>
 <kpoints>
  <generation param="listgenerated">
   <i name="divisions" type="int">      40 </i>
   <v>       0.50000000       0.50000000       0.50000000 </v>
   <v>       0.37500000       0.75000000       0.37500000 </v>
   <v>       0.25000000       0.75000000       0.50000000 </v>
   <v>       0.00000000       0.00000000       0.00000000 </v>
   <v>       0.00000000       0.50000000       0.50000000 </v>
   <v>       0.25000000       0.75000000       0.50000000 </v>
   <v>       0.50000000       0.50000000       0.50000000 </v>
   <v>       0.00000000       0.00000000       0.00000000 </v>
   <v>       0.37500000       0.75000000       0.37500000 </v>
  </generation>
  <varray name="kpointlist" >
   <v>       0.50000000       0.50000000       0.50000000 </v>
   <v>       0.49679487       0.50641026       0.49679487 </v>
   <v>       0.49358974       0.51282051       0.49358974 </v>
   <v>       0.49038462       0.51923077       0.49038462 </v>
   <v>       0.48717949       0.52564103       0.48717949 </v>
   <v>       0.48397436       0.53205128       0.48397436 </v>
   <v>       0.48076923       0.53846154       0.48076923 </v>
   <v>       0.47756410       0.54487179       0.47756410 </v>
   <v>       0.47435897       0.55128205       0.47435897 </v>
   <v>       0.47115385       0.55769231       0.47115385 </v>
   <v>       0.46794872       0.56410256       0.46794872 </v>
   <v>       0.46474359       0.57051282       0.46474359 </v>
   <v>       0.46153846       0.57692308       0.46153846 </v>
   <v>       0.45833333       0.58333333       0.45833333 </v>
   <v>       0.45512821       0.58974359       0.45512821 </v>
   <v>       0.45192308       0.59615385       0.45192308 </v>
   <v>       0.44871795       0.60256410       0.44871795 </v>
   <v>       0.44551282       0.60897436       0.44551282 </v>
   <v>       0.44230769       0.61538462       0.44230769 </v>
   <v>       0.43910256       0.62179487       0.43910256 </v>
   <v>       0.43589744       0.62820513       0.43589744 </v>
   <v>       0.43269231       0.63461538       0.43269231 </v>
   <v>       0.42948718       0.64102564       0.42948718 </v>
   <v>       0.42628205       0.64743590       0.42628205 </v>
   <v>       0.42307692       0.65384615       0.42307692 </v>
   <v>       0.41987179       0.66025641       0.41987179 </v>
   <v>       0.41666667       0.66666667       0.41666667 </v>
   <v>       0.41346154       0.67307692       0.41346154 </v>
   <v>       0.41025641       0.67948718       0.41025641 </v>
   <v>       0.40705128       0.68589744       0.40705128 </v>
   <v>       0.40384615       0.69230769       0.40384615 </v>
   <v>       0.40064103       0.69871795       0.40064103 </v>
   <v>       0.39743590       0.70512821       0.39743590 </v>
   <v>       0.39423077       0.71153846       0.39423077 </v>
   <v>       0.39102564       0.71794872       0.39102564 </v>
   <v>       0.38782051       0.72435897       0.38782051 </v>
   <v>       0.38461538       0.73076923       0.38461538 </v>
   <v>       0.38141026       0.73717949       0.38141026 </v>
   <v>       0.37820513       0.74358974       0.37820513 </v>
   <v>       0.37500000       0.75000000       0.37500000 </v>
   <v>       0.37500000       0.75000000       0.37500000 </v>
   <v>       0.37179487       0.75000000       0.37820513 </v>
   <v>       0.36858974       0.75000000       0.38141026 </v>
   <v>       0.36538462       0.75000000       0.38461538 </v>
   <v>       0.36217949       0.75000000       0.38782051 </v>
   <v>       0.35897436       0.75000000       0.39102564 </v>
   <v>       0.35576923       0.75000000       0.39423077 </v>
   <v>       0.35256410       0.75000000       0.39743590 </v>
   <v>       0.34935897       0.75000000       0.40064103 </v>
   <v>       0.34615385       0.75000000       0.40384615 </v>
   <v>       0.34294872       0.75000000       0.40705128 </v>
   <v>       0.33974359       0.75000000       0.41025641 </v>
   <v>       0.33653846       0.75000000       0.41346154 </v>
   <v>       0.33333333       0.75000000       0.41666667 </v>
   <v>       0.33012821       0.75000000       0.41987179 </v>
   <v>       0.32692308       0.75000000       0.42307692 </v>
   <v>       0.32371795       0.75000000       0.42628205 </v>
   <v>       0.32051282       0.75000000       0.42948718 </v>
   <v>       0.31730769       0.75000000       0.43269231 </v>
   <v>       0.31410256       0.75000000       0.43589744 </v>
   <v>       0.31089744       0.75000000       0.43910256 </v>
   <v>       0.30769231       0.75000000       0.44230769 </v>
   <v>       0.30448718       0.75000000       0.44551282 </v>
   <v>       0.30128205       0.75000000       0.44871795 </v>
   <v>       0.29807692       0.75000000       0.45192308 </v>
   <v>       0.29487179       0.75000000       0.45512821 </v>
   <v>       0.29166667       0.75000000       0.45833333 </v>
   <v>       0.28846154       0.75000000       0.46153846 </v>
   <v>       0.28525641       0.75000000       0.46474359 </v>
   <v>       0.28205128       0.75000000       0.46794872 </v>
   <v>       0.27884615       0.75000000       0.47115385 </v>
   <v>       0.27564103       0.75000000       0.47435897 </v>
   <v>       0.27243590       0.75000000       0.47756410 </v>
   <v>       0.26923077       0.75000000       0.48076923 </v>
   <v>       0.26602564       0.75000000       0.48397436 </v>
   <v>       0.26282051       0.75000000       0.48717949 </v>
   <v>       0.25961538       0.75000000       0.49038462 </v>
   <v>       0.25641026       0.75000000       0.49358974 </v>
   <v>       0.25320513       0.75000000       0.49679487 </v>
   <v>       0.25000000       0.75000000       0.50000000 </v>
   <v>       0.25000000       0.75000000       0.50000000 </v>
   <v>       0.24358974       0.73076923       0.48717949 </v>
   <v>       0.23717949       0.71153846       0.47435897 </v>
   <v>       0.23076923       0.69230769       0.46153846 </v>
   <v>       0.22435897       0.67307692       0.44871795 </v>
   <v>       0.21794872       0.65384615       0.43589744 </v>
   <v>       0.21153846       0.63461538       0.42307692 </v>
   <v>       0.20512821       0.61538462       0.41025641 </v>
   <v>       0.19871795       0.59615385       0.39743590 </v>
   <v>       0.19230769       0.57692308       0.38461538 </v>
   <v>       0.18589744       0.55769231       0.37179487 </v>
   <v>       0.17948718       0.53846154       0.35897436 </v>
   <v>       0.17307692       0.51923077       0.34615385 </v>
   <v>       0.16666667       0.50000000       0.33333333 </v>
   <v>       0.16025641       0.48076923       0.32051282 </v>
   <v>       0.15384615       0.46153846       0.30769231 </v>
   <v>       0.14743590       0.44230769       0.29487179 </v>
   <v>       0.14102564       0.42307692       0.28205128 </v>
   <v>       0.13461538       0.40384615       0.26923077 </v>
   <v>       0.12820513       0.38461538       0.25641026 </v>
   <v>       0.12179487       0.36538462       0.24358974 </v>
   <v>       0.11538462       0.34615385       0.23076923 </v>
   <v>       0.10897436       0.32692308       0.21794872 </v>
   <v>       0.10256410       0.30769231       0.20512821 </v>
   <v>       0.09615385       0.28846154       0.19230769 </v>
   <v>       0.08974359       0.26923077       0.17948718 </v>
   <v>       0.08333333       0.25000000       0.16666667 </v>
   <v>       0.07692308       0.23076923       0.15384615 </v>
   <v>       0.07051282       0.21153846       0.14102564 </v>
   <v>       0.06410256       0.19230769       0.12820513 </v>
   <v>       0.05769231       0.17307692       0.11538462 </v>
   <v>       0.05128205       0.15384615       0.10256410 </v>
   <v>       0.04487179       0.13461538       0.08974359 </v>
   <v>       0.03846154       0.11538462       0.07692308 </v>
   <v>       0.03205128       0.09615385       0.06410256 </v>
   <v>       0.02564103       0.07692308       0.05128205 </v>
   <v>       0.01923077       0.05769231       0.03846154 </v>
   <v>       0.01282051       0.03846154       0.02564103 </v>
   <v>       0.00641026       0.01923077       0.01282051 </v>
   <v>       0.00000000       0.00000000       0.00000000 </v>
   <v>       0.00000000       0.00000000       0.00000000 </v>
   <v>       0.00000000       0.01282051       0.01282051 </v>
   <v>       0.00000000       0.02564103       0.02564103 </v>
   <v>       0.00000000       0.03846154       0.03846154 </v>
   <v>       0.00000000       0.05128205       0.05128205 </v>
   <v>       0.00000000       0.06410256       0.06410256 </v>
   <v>       0.00000000       0.07692308       0.07692308 </v>
   <v>       0.00000000       0.08974359       0.08974359 </v>
   <v>       0.00000000       0.10256410       0.10256410 </v>
   <v>       0.00000000       0.11538462       0.11538462 </v>
   <v>       0.00000000       0.12820513       0.12820513 </v>
   <v>       0.00000000       0.14102564       0.14102564 </v>
   <v>       0.00000000       0.15384615       0.15384615 </v>
   <v>       0.00000000       0.16666667       0.16666667 </v>
   <v>       0.00000000       0.17948718       0.17948718 </v>
   <v>       0.00000000       0.19230769       0.19230769 </v>
   <v>       0.00000000       0.20512821       0.20512821 </v>
   <v>       0.00000000       0.21794872       0.21794872 </v>
   <v>       0.00000000       0.23076923       0.23076923 </v>
   <v>       0.00000000       0.24358974       0.24358974 </v>
   <v>       0.00000000       0.25641026       0.25641026 </v>
   <v>       0.00000000       0.26923077       0.26923077 </v>
   <v>       0.00000000       0.28205128       0.28205128 </v>
   <v>       0.00000000       0.29487179       0.29487179 </v>
   <v>       0.00000000       0.30769231       0.30769231 </v>
   <v>       0.00000000       0.32051282       0.32051282 </v>
   <v>       0.00000000       0.33333333       0.33333333 </v>
   <v>       0.00000000       0.34615385       0.34615385 </v>
   <v>       0.00000000       0.35897436       0.35897436 </v>
   <v>       0.00000000       0.37179487       0.37179487 </v>
   <v>       0.00000000       0.38461538       0.38461538 </v>
   <v>       0.00000000       0.39743590       0.39743590 </v>
   <v>       0.00000000       0.41025641       0.41025641 </v>
   <v>       0.00000000       0.42307692       0.42307692 </v>
   <v>       0.00000000       0.43589744       0.43589744 </v>
   <v>       0.00000000       0.44871795       0.44871795 </v>
   <v>       0.00000000       0.46153846       0.46153846 </v>
   <v>       0.00000000       0.47435897       0.47435897 </v>
   <v>       0.00000000       0.48717949       0.48717949 </v>
   <v>       0.00000000       0.50000000       0.50000000 </v>
   <v>       0.00000000       0.50000000       0.50000000 </v>
   <v>       0.00641026       0.50641026       0.50000000 </v>
   <v>       0.01282051       0.51282051       0.50000000 </v>
   <v>       0.01923077       0.51923077       0.50000000 </v>
   <v>       0.02564103       0.52564103       0.50000000 </v>
   <v>       0.03205128       0.53205128       0.50000000 </v>
   <v>       0.03846154       0.53846154       0.50000000 </v>
   <v>       0.04487179       0.54487179       0.50000000 </v>
   <v>       0.05128205       0.55128205       0.50000000 </v>
   <v>       0.05769231       0.55769231       0.50000000 </v>
   <v>       0.06410256       0.56410256       0.50000000 </v>
   <v>       0.07051282       0.57051282       0.50000000 </v>
   <v>       0.07692308       0.57692308       0.50000000 </v>
   <v>       0.08333333       0.58333333       0.50000000 </v>
   <v>       0.08974359       0.58974359       0.50000000 </v>
   <v>       0.09615385       0.59615385       0.50000000 </v>
   <v>       0.10256410       0.60256410       0.50000000 </v>
   <v>       0.10897436       0.60897436       0.50000000 </v>
   <v>       0.11538462       0.61538462       0.50000000 </v>
   <v>       0.12179487       0.62179487       0.50000000 </v>
   <v>       0.12820513       0.62820513       0.50000000 </v>
   <v>       0.13461538       0.63461538       0.50000000 </v>
   <v>       0.14102564       0.64102564       0.50000000 </v>
   <v>       0.14743590       0.64743590       0.50000000 </v>
   <v>       0.15384615       0.65384615       0.50000000 </v>
   <v>       0.16025641       0.66025641       0.50000000 </v>
   <v>       0.16666667       0.66666667       0.50000000 </v>
   <v>       0.17307692       0.67307692       0.50000000 </v>
   <v>       0.17948718       0.67948718       0.50000000 </v>
   <v>       0.18589744       0.68589744       0.50000000 </v>
   <v>       0.19230769       0.69230769       0.50000000 </v>
   <v>       0.19871795       0.69871795       0.50000000 </v>
   <v>       0.20512821       0.70512821       0.50000000 </v>
   <v>       0.21153846       0.71153846       0.50000000 </v>
   <v>       0.21794872       0.71794872       0.50000000 </v>
   <v>       0.22435897       0.72435897       0.50000000 </v>
   <v>       0.23076923       0.73076923       0.50000000 </v>
   <v>       0.23717949       0.73717949       0.50000000 </v>
   <v>       0.24358974       0.74358974       0.50000000 </v>
   <v>       0.25000000       0.75000000       0.50000000 </v>
   <v>       0.25000000       0.75000000       0.50000000 </v>
   <v>       0.25641026       0.74358974       0.50000000 </v>
   <v>       0.26282051       0.73717949       0.50000000 </v>
   <v>       0.26923077       0.73076923       0.50000000 </v>
   <v>       0.27564103       0.72435897       0.50000000 </v>
   <v>       0.28205128       0.71794872       0.50000000 </v>
   <v>       0.28846154       0.71153846       0.50000000 </v>
   <v>       0.29487179       0.70512821       0.50000000 </v>
   <v>       0.30128205       0.69871795       0.50000000 </v>
   <v>       0.30769231       0.69230769       0.50000000 </v>
   <v>       0.31410256       0.68589744       0.50000000 </v>
   <v>       0.32051282       0.67948718       0.50000000 </v>
   <v>       0.32692308       0.67307692       0.50000000 </v>
   <v>       0.33333333       0.66666667       0.50000000 </v>
   <v>       0.33974359       0.66025641       0.50000000 </v>
   <v>       0.34615385       0.65384615       0.50000000 </v>
   <v>       0.35256410       0.64743590       0.50000000 </v>
   <v>       0.35897436       0.64102564       0.50000000 </v>
   <v>       0.36538462       0.63461538       0.50000000 </v>
   <v>       0.37179487       0.62820513       0.50000000 </v>
   <v>       0.37820513       0.62179487       0.50000000 </v>
   <v>       0.38461538       0.61538462       0.50000000 </v>
   <v>       0.39102564       0.60897436       0.50000000 </v>
   <v>       0.39743590       0.60256410       0.50000000 </v>
   <v>       0.40384615       0.59615385       0.50000000 </v>
   <v>       0.41025641       0.58974359       0.50000000 </v>
   <v>       0.41666667       0.58333333       0.50000000 </v>
   <v>       0.42307692       0.57692308       0.50000000 </v>
   <v>       0.42948718       0.57051282       0.50000000 </v>
   <v>       0.43589744       0.56410256       0.50000000 </v>
   <v>       0.44230769       0.55769231       0.50000000 </v>
   <v>       0.44871795       0.55128205       0.50000000 </v>
   <v>       0.45512821       0.54487179       0.50000000 </v>
   <v>       0.46153846       0.53846154       0.50000000 </v>
   <v>       0.46794872       0.53205128       0.50000000 </v>
   <v>       0.47435897       0.52564103       0.50000000 </v>
   <v>       0.48076923       0.51923077       0.50000000 </v>
   <v>       0.48717949       0.51282051       0.50000000 </v>
   <v>       0.49358974       0.50641026       0.50000000 </v>
   <v>       0.50000000       0.50000000       0.50000000 </v>
   <v>       0.50000000       0.50000000       0.50000000 </v>
   <v>       0.48717949       0.48717949       0.48717949 </v>
   <v>       0.47435897       0.47435897       0.47435897 </v>
   <v>       0.46153846       0.46153846       0.46153846 </v>
   <v>       0.44871795       0.44871795       0.44871795 </v>
   <v>       0.43589744       0.43589744       0.43589744 </v>
   <v>       0.42307692       0.42307692       0.42307692 </v>
   <v>       0.41025641       0.41025641       0.41025641 </v>
   <v>       0.39743590       0.39743590       0.39743590 </v>
   <v>       0.38461538       0.38461538       0.38461538 </v>
   <v>       0.37179487       0.37179487       0.37179487 </v>
   <v>       0.35897436       0.35897436       0.35897436 </v>
   <v>       0.34615385       0.34615385       0.34615385 </v>
   <v>       0.33333333       0.33333333       0.33333333 </v>
   <v>       0.32051282       0.32051282       0.32051282 </v>
   <v>       0.30769231       0.30769231       0.30769231 </v>
   <v>       0.29487179       0.29487179       0.29487179 </v>
   <v>       0.28205128       0.28205128       0.28205128 </v>
   <v>       0.26923077       0.26923077       0.26923077 </v>
   <v>       0.25641026       0.25641026       0.25641026 </v>
   <v>       0.24358974       0.24358974       0.24358974 </v>
   <v>       0.23076923       0.23076923       0.23076923 </v>
   <v>       0.21794872       0.21794872       0.21794872 </v>
   <v>       0.20512821       0.20512821       0.20512821 </v>
   <v>       0.19230769       0.19230769       0.19230769 </v>
   <v>       0.17948718       0.17948718       0.17948718 </v>
   <v>       0.16666667       0.16666667       0.16666667 </v>
   <v>       0.15384615       0.15384615       0.15384615 </v>
   <v>       0.14102564       0.14102564       0.14102564 </v>
   <v>       0.12820513       0.12820513       0.12820513 </v>
   <v>       0.11538462       0.11538462       0.11538462 </v>
   <v>       0.10256410       0.10256410       0.10256410 </v>
   <v>       0.08974359       0.08974359       0.08974359 </v>
   <v>       0.07692308       0.07692308       0.07692308 </v>
   <v>       0.06410256       0.06410256       0.06410256 </v>
   <v>       0.05128205       0.05128205       0.05128205 </v>
   <v>       0.03846154       0.03846154       0.03846154 </v>
   <v>       0.02564103       0.02564103       0.02564103 </v>
   <v>       0.01282051       0.01282051       0.01282051 </v>
   <v>       0.00000000       0.00000000       0.00000000 </v>
   <v>       0.00000000       0.00000000       0.00000000 </v>
   <v>       0.00961538       0.01923077       0.00961538 </v>
   <v>       0.01923077       0.03846154       0.01923077 </v>
   <v>       0.02884615       0.05769231       0.02884615 </v>
   <v>       0.03846154       0.07692308       0.03846154 </v>
   <v>       0.04807692       0.09615385       0.04807692 </v>
   <v>       0.05769231       0.11538462       0.05769231 </v>
   <v>       0.06730769       0.13461538       0.06730769 </v>
   <v>       0.07692308       0.15384615       0.07692308 </v>
   <v>       0.08653846       0.17307692       0.08653846 </v>
   <v>       0.09615385       0.19230769       0.09615385 </v>
   <v>       0.10576923       0.21153846       0.10576923 </v>
   <v>       0.11538462       0.23076923       0.11538462 </v>
   <v>       0.12500000       0.25000000       0.12500000 </v>
   <v>       0.13461538       0.26923077       0.13461538 </v>
   <v>       0.14423077       0.28846154       0.14423077 </v>
   <v>       0.15384615       0.30769231       0.15384615 </v>
   <v>       0.16346154       0.32692308       0.16346154 </v>
   <v>       0.17307692       0.34615385       0.17307692 </v>
   <v>       0.18269231       0.36538462       0.18269231 </v>
   <v>       0.19230769       0.38461538       0.19230769 </v>
   <v>       0.20192308       0.40384615       0.20192308 </v>
   <v>       0.21153846       0.42307692       0.21153846 </v>
   <v>       0.22115385       0.44230769       0.22115385 </v>
   <v>       0.23076923       0.46153846       0.23076923 </v>
   <v>       0.24038462       0.48076923       0.24038462 </v>
   <v>       0.25000000       0.50000000       0.25000000 </v>
   <v>       0.25961538       0.51923077       0.25961538 </v>
   <v>       0.26923077       0.53846154       0.26923077 </v>
   <v>       0.27884615       0.55769231       0.27884615 </v>
   <v>       0.28846154       0.57692308       0.28846154 </v>
   <v>       0.29807692       0.59615385       0.29807692 </v>
   <v>       0.30769231       0.61538462       0.30769231 </v>
   <v>       0.31730769       0.63461538       0.31730769 </v>
   <v>       0.32692308       0.65384615       0.32692308 </v>
   <v>       0.33653846       0.67307692       0.33653846 </v>
   <v>       0.34615385       0.69230769       0.34615385 </v>
   <v>       0.35576923       0.71153846       0.35576923 </v>
   <v>       0.36538462       0.73076923       0.36538462 </v>
   <v>       0.37500000       0.75000000       0.37500000 </v>
  </varray>
  <varray name="weights" >
   <v>       0.00312500 </v>
   <v>       0.00312500 </v>
   <v>       0.00312500 </v>
   <v>       0.00312500 </v>
   <v>       0.00312500 </v>
   <v>       0.00312500 </v>
   <v>       0.00312500 </v>
   <v>       0.00312500 </v>
   <v>       0.00312500 </v>
   <v>       0.00312500 </v>
   <v>       0.00312500 </v>
   <v>       0.00312500 </v>
   <v>       0.00312500 </v>
   <v>       0.00312500 </v>
   <v>       0.00312500 </v>
   <v>       0.00312500 </v>
   <v>       0.00312500 </v>
   <v>       0.00312500 </v>
   <v>       0.00312500 </v>
   <v>       0.00312500 </v>
   <v>       0.00312500 </v>
   <v>       0.00312500 </v>
   <v>       0.00312500 </v>
   <v>       0.00312500 </v>
   <v>       0.00312500 </v>
   <v>       0.00312500 </v>
   <v>       0.00312500 </v>
   <v>       0.00312500 </v>
   <v>       0.00312500 </v>
   <v>       0.00312500 </v>
   <v>       0.00312500 </v>
   <v>       0.00312500 </v>
   <v>       0.00312500 </v>
   <v>       0.00312500 </v>
   <v>       0.00312500 </v>
   <v>       0.00312500 </v>
   <v>       0.00312500 </v>
   <v>       0.00312500 </v>
   <v>       0.00312500 </v>
   <v>       0.00312500 </v>
   <v>       0.00312500 </v>
   <v>       0.00312500 </v>
   <v>       0.00312500 </v>
   <v>       0.00312500 </v>
   <v>       0.00312500 </v>
   <v>       0.00312500 </v>
   <v>       0.00312500 </v>
   <v>       0.00312500 </v>
   <v>       0.00312500 </v>
   <v>       0.00312500 </v>
   <v>       0.00312500 </v>
   <v>       0.00312500 </v>
   <v>       0.00312500 </v>
   <v>       0.00312500 </v>
   <v>       0.00312500 </v>
   <v>       0.00312500 </v>
   <v>       0.00312500 </v>
   <v>       0.00312500 </v>
   <v>       0.00312500 </v>
   <v>       0.00312500 </v>
   <v>       0.00312500 </v>
   <v>       0.00312500 </v>
   <v>       0.00312500 </v>
   <v>       0.00312500 </v>
   <v>       0.00312500 </v>
   <v>       0.00312500 </v>
   <v>       0.00312500 </v>
   <v>       0.00312500 </v>
   <v>       0.00312500 </v>
   <v>       0.00312500 </v>
   <v>       0.00312500 </v>
   <v>       0.00312500 </v>
   <v>       0.00312500 </v>
   <v>       0.00312500 </v>
   <v>       0.00312500 </v>
   <v>       0.00312500 </v>
   <v>       0.00312500 </v>
   <v>       0.00312500 </v>
   <v>       0.00312500 </v>
   <v>       0.00312500 </v>
   <v>       0.00312500 </v>
   <v>       0.00312500 </v>
   <v>       0.00312500 </v>
   <v>       0.00312500 </v>
   <v>       0.00312500 </v>
   <v>       0.00312500 </v>
   <v>       0.00312500 </v>
   <v>       0.00312500 </v>
   <v>       0.00312500 </v>
   <v>       0.00312500 </v>
   <v>       0.00312500 </v>
   <v>       0.00312500 </v>
   <v>       0.00312500 </v>
   <v>       0.00312500 </v>
   <v>       0.00312500 </v>
   <v>       0.00312500 </v>
   <v>       0.00312500 </v>
   <v>       0.00312500 </v>
   <v>       0.00312500 </v>
   <v>       0.00312500 </v>
   <v>       0.00312500 </v>
   <v>       0.00312500 </v>
   <v>       0.00312500 </v>
   <v>       0.00312500 </v>
   <v>       0.00312500 </v>
   <v>       0.00312500 </v>
   <v>       0.00312500 </v>
   <v>       0.00312500 </v>
   <v>       0.00312500 </v>
   <v>       0.00312500 </v>
   <v>       0.00312500 </v>
   <v>       0.00312500 </v>
   <v>       0.00312500 </v>
   <v>       0.00312500 </v>
   <v>       0.00312500 </v>
   <v>       0.00312500 </v>
   <v>       0.00312500 </v>
   <v>       0.00312500 </v>
   <v>       0.00312500 </v>
   <v>       0.00312500 </v>
   <v>       0.00312500 </v>
   <v>       0.00312500 </v>
   <v>       0.00312500 </v>
   <v>       0.00312500 </v>
   <v>       0.00312500 </v>
   <v>       0.00312500 </v>
   <v>       0.00312500 </v>
   <v>       0.00312500 </v>
   <v>       0.00312500 </v>
   <v>       0.00312500 </v>
   <v>       0.00312500 </v>
   <v>       0.00312500 </v>
   <v>       0.00312500 </v>
   <v>       0.00312500 </v>
   <v>       0.00312500 </v>
   <v>       0.00312500 </v>
   <v>       0.00312500 </v>
   <v>       0.00312500 </v>
   <v>       0.00312500 </v>
   <v>       0.00312500 </v>
   <v>       0.00312500 </v>
   <v>       0.00312500 </v>
   <v>       0.00312500 </v>
   <v>       0.00312500 </v>
   <v>       0.00312500 </v>
   <v>       0.00312500 </v>
   <v>       0.00312500 </v>
   <v>       0.00312500 </v>
   <v>       0.00312500 </v>
   <v>       0.00312500 </v>
   <v>       0.00312500 </v>
   <v>       0.00312500 </v>
   <v>       0.00312500 </v>
   <v>       0.00312500 </v>
   <v>       0.00312500 </v>
   <v>       0.00312500 </v>
   <v>       0.00312500 </v>
   <v>       0.00312500 </v>
   <v>       0.00312500 </v>
   <v>       0.00312500 </v>
   <v>       0.00312500 </v>
   <v>       0.00312500 </v>
   <v>       0.00312500 </v>
   <v>       0.00312500 </v>
   <v>       0.00312500 </v>
   <v>       0.00312500 </v>
   <v>       0.00312500 </v>
   <v>       0.00312500 </v>
   <v>       0.00312500 </v>
   <v>       0.00312500 </v>
   <v>       0.00312500 </v>
   <v>       0.00312500 </v>
   <v>       0.00312500 </v>
   <v>       0.00312500 </v>
   <v>       0.00312500 </v>
   <v>       0.00312500 </v>
   <v>       0.00312500 </v>
   <v>       0.00312500 </v>
   <v>       0.00312500 </v>
   <v>       0.00312500 </v>
   <v>       0.00312500 </v>
   <v>       0.00312500 </v>
   <v>       0.00312500 </v>
   <v>       0.00312500 </v>
   <v>       0.00312500 </v>
   <v>       0.00312500 </v>
   <v>       0.00312500 </v>
   <v>       0.00312500 </v>
   <v>       0.00312500 </v>
   <v>       0.00312500 </v>
   <v>       0.00312500 </v>
   <v>       0.00312500 </v>
   <v>       0.00312500 </v>
   <v>       0.00312500 </v>
   <v>       0.00312500 </v>
   <v>       0.00312500 </v>
   <v>       0.00312500 </v>
   <v>       0.00312500 </v>
   <v>       0.00312500 </v>
   <v>       0.00312500 </v>
   <v>       0.00312500 </v>
   <v>       0.00312500 </v>
   <v>       0.00312500 </v>
   <v>       0.00312500 </v>
   <v>       0.00312500 </v>
   <v>       0.00312500 </v>
   <v>       0.00312500 </v>
   <v>       0.00312500 </v>
   <v>       0.00312500 </v>
   <v>       0.00312500 </v>
   <v>       0.00312500 </v>
   <v>       0.00312500 </v>
   <v>       0.00312500 </v>
   <v>       0.00312500 </v>
   <v>       0.00312500 </v>
   <v>       0.00312500 </v>
   <v>       0.00312500 </v>
   <v>       0.00312500 </v>
   <v>       0.00312500 </v>
   <v>       0.00312500 </v>
   <v>       0.00312500 </v>
   <v>       0.00312500 </v>
   <v>       0.00312500 </v>
   <v>       0.00312500 </v>
   <v>       0.00312500 </v>
   <v>       0.00312500 </v>
   <v>       0.00312500 </v>
   <v>       0.00312500 </v>
   <v>       0.00312500 </v>
   <v>       0.00312500 </v>
   <v>       0.00312500 </v>
   <v>       0.00312500 </v>
   <v>       0.00312500 </v>
   <v>       0.00312500 </v>
   <v>       0.00312500 </v>
   <v>       0.00312500 </v>
   <v>       0.00312500 </v>
   <v>       0.00312500 </v>
   <v>       0.00312500 </v>
   <v>       0.00312500 </v>
   <v>       0.00312500 </v>
   <v>       0.00312500 </v>
   <v>       0.00312500 </v>
   <v>       0.00312500 </v>
   <v>       0.00312500 </v>
   <v>       0.00312500 </v>
   <v>       0.00312500 </v>
   <v>       0.00312500 </v>
   <v>       0.00312500 </v>
   <v>       0.00312500 </v>
   <v>       0.00312500 </v>
   <v>       0.00312500 </v>
   <v>       0.00312500 </v>
   <v>       0.00312500 </v>
   <v>       0.00312500 </v>
   <v>       0.00312500 </v>
   <v>       0.00312500 </v>
   <v>       0.00312500 </v>
   <v>       0.00312500 </v>
   <v>       0.00312500 </v>
   <v>       0.00312500 </v>
   <v>       0.00312500 </v>
   <v>       0.00312500 </v>
   <v>       0.00312500 </v>
   <v>       0.00312500 </v>
   <v>       0.00312500 </v>
   <v>       0.00312500 </v>
   <v>       0.00312500 </v>
   <v>       0.00312500 </v>
   <v>       0.00312500 </v>
   <v>       0.00312500 </v>
   <v>       0.00312500 </v>
   <v>       0.00312500 </v>
   <v>       0.00312500 </v>
   <v>       0.00312500 </v>
   <v>       0.00312500 </v>
   <v>       0.00312500 </v>
   <v>       0.00312500 </v>
   <v>       0.00312500 </v>
   <v>       0.00312500 </v>
   <v>       0.00312500 </v>
   <v>       0.00312500 </v>
   <v>       0.00312500 </v>
   <v>       0.00312500 </v>
   <v>       0.00312500 </v>
   <v>       0.00312500 </v>
   <v>       0.00312500 </v>
   <v>       0.00312500 </v>
   <v>       0.00312500 </v>
   <v>       0.00312500 </v>
   <v>       0.00312500 </v>
   <v>       0.00312500 </v>
   <v>       0.00312500 </v>
   <v>       0.00312500 </v>
   <v>       0.00312500 </v>
   <v>       0.00312500 </v>
   <v>       0.00312500 </v>
   <v>       0.00312500 </v>
   <v>       0.00312500 </v>
   <v>       0.00312500 </v>
   <v>       0.00312500 </v>
   <v>       0.00312500 </v>
   <v>       0.00312500 </v>
   <v>       0.00312500 </v>
   <v>       0.00312500 </v>
   <v>       0.00312500 </v>
   <v>       0.00312500 </v>
   <v>       0.00312500 </v>
   <v>       0.00312500 </v>
   <v>       0.00312500 </v>
   <v>       0.00312500 </v>
   <v>       0.00312500 </v>
   <v>       0.00312500 </v>
   <v>       0.00312500 </v>
   <v>       0.00312500 </v>
   <v>       0.00312500 </v>
   <v>       0.00312500 </v>
   <v>       0.00312500 </v>
   <v>       0.00312500 </v>
   <v>       0.00312500 </v>
  </varray>
 </kpoints>
 <parameters>
  <separator name="general" >
   <i type="string" name="SYSTEM">Al</i>
   <i type="logical" name="LCOMPAT"> F  </i>
  </separator>
  <separator name="electronic" >
   <i type="string" name="PREC">normal</i>
   <i name="ENMAX">    240.43700000</i>
   <i name="ENAUG">    291.05200000</i>
   <i name="EDIFF">      0.00000100</i>
   <i type="int" name="IALGO">    38</i>
   <i type="int" name="IWAVPR">    10</i>
   <i type="int" name="NBANDS">     6</i>
   <i name="NELECT">      3.00000000</i>
   <i type="int" name="TURBO">     0</i>
   <i type="int" name="IRESTART">     0</i>
   <i type="int" name="NREBOOT">     0</i>
   <i type="int" name="NMIN">     0</i>
   <i name="EREF">      0.00000000</i>
   <separator name="electronic smearing" >
    <i type="int" name="ISMEAR">     1</i>
    <i name="SIGMA">      0.20000000</i>
    <i name="KSPACING">      0.50000000</i>
    <i type="logical" name="KGAMMA"> T  </i>
   </separator>
   <separator name="electronic projectors" >
    <i type="logical" name="LREAL"> F  </i>
    <v name="ROPT">      0.00000000</v>
    <i type="int" name="LMAXPAW">  -100</i>
    <i type="int" name="LMAXMIX">     2</i>
    <i type="logical" name="NLSPLINE"> F  </i>
   </separator>
   <separator name="electronic startup" >
    <i type="int" name="ISTART">     0</i>
    <i type="int" name="ICHARG">    11</i>
    <i type="int" name="INIWAV">     1</i>
   </separator>
   <separator name="electronic spin" >
    <i type="int" name="ISPIN">     1</i>
    <i type="logical" name="LNONCOLLINEAR"> F  </i>
    <v name="MAGMOM">      1.00000000</v>
    <i name="NUPDOWN">     -1.00000000</i>
    <i type="logical" name="LSORBIT"> F  </i>
    <v name="SAXIS">      0.00000000      0.00000000      1.00000000</v>
    <i type="logical" name="LSPIRAL"> F  </i>
    <v name="QSPIRAL">      0.00000000      0.00000000      0.00000000</v>
    <i type="logical" name="LZEROZ"> F  </i>
   </separator>
   <separator name="electronic exchange-correlation" >
    <i type="logical" name="LASPH"> F  </i>
    <i type="logical" name="LMETAGGA"> F  </i>
   </separator>
   <separator name="electronic convergence" >
    <i type="int" name="NELM">    60</i>
    <i type="int" name="NELMDL">    -5</i>
    <i type="int" name="NELMIN">     2</i>
    <i name="ENINI">    240.43700000</i>
    <separator name="electronic convergence detail" >
     <i type="logical" name="LDIAG"> T  </i>
     <i type="logical" name="LSUBROT"> T  </i>
     <i name="WEIMIN">      0.00000000</i>
     <i name="EBREAK">      0.00000004</i>
     <i name="DEPER">      0.30000000</i>
     <i type="int" name="NRMM">     4</i>
     <i name="TIME">      0.40000000</i>
    </separator>
   </separator>
   <separator name="electronic mixer" >
    <i name="AMIX">      0.40000000</i>
    <i name="BMIX">      1.00000000</i>
    <i name="AMIN">      0.10000000</i>
    <i name="AMIX_MAG">      1.60000000</i>
    <i name="BMIX_MAG">      1.00000000</i>
    <separator name="electronic mixer details" >
     <i type="int" name="IMIX">     4</i>
     <i type="int" name="MAXMIX">   -45</i>
     <i name="WC">    100.00000000</i>
     <i type="int" name="INIMIX">     1</i>
     <i type="int" name="MIXPRE">     1</i>
     <i type="int" name="MREMOVE">     5</i>
    </separator>
   </separator>
   <separator name="electronic dipolcorrection" >
    <i type="logical" name="LDIPOL"> F  </i>
    <i type="logical" name="LMONO"> F  </i>
    <i type="int" name="IDIPOL">     0</i>
    <i name="EPSILON">      1.00000000</i>
    <v name="DIPOL">   -100.00000000   -100.00000000   -100.00000000</v>
    <i name="EFIELD">      0.00000000</i>
   </separator>
  </separator>
  <separator name="grids" >
   <i type="int" name="NGX">    12</i>
   <i type="int" name="NGY">    12</i>
   <i type="int" name="NGZ">    12</i>
   <i type="int" name="NGXF">    24</i>
   <i type="int" name="NGYF">    24</i>
   <i type="int" name="NGZF">    24</i>
   <i type="logical" name="ADDGRID"> F  </i>
  </separator>
  <separator name="ionic" >
   <i type="int" name="NSW">     0</i>
   <i type="int" name="IBRION">    -1</i>
   <i type="int" name="ISIF">     2</i>
   <i name="PSTRESS">      0.00000000</i>
   <i name="EDIFFG">      0.00001000</i>
   <i type="int" name="NFREE">     0</i>
   <i name="POTIM">      0.50000000</i>
   <i name="SMASS">     -3.00000000</i>
   <i name="SCALEE">      1.00000000</i>
  </separator>
  <separator name="ionic md" >
   <i name="TEBEG">      0.00010000</i>
   <i name="TEEND">      0.00010000</i>
   <i type="int" name="NBLOCK">     1</i>
   <i type="int" name="KBLOCK">     1</i>
   <i type="int" name="NPACO">   256</i>
   <i name="APACO">     16.00000000</i>
  </separator>
  <separator name="symmetry" >
   <i type="int" name="ISYM">     2</i>
   <i name="SYMPREC">      0.00001000</i>
  </separator>
  <separator name="dos" >
   <i type="logical" name="LORBIT"> F  </i>
   <v name="RWIGS">      1.40200000</v>
   <i type="int" name="NEDOS">   301</i>
   <i name="EMIN">     10.00000000</i>
   <i name="EMAX">    -10.00000000</i>
   <i name="EFERMI">      0.00000000</i>
  </separator>
  <separator name="writing" >
   <i type="int" name="NWRITE">     2</i>
   <i type="logical" name="LWAVE"> F  </i>
   <i type="logical" name="LCHARG"> F  </i>
   <i type="logical" name="LPARD"> F  </i>
   <i type="logical" name="LVTOT"> F  </i>
   <i type="logical" name="LVHAR"> F  </i>
   <i type="logical" name="LELF"> F  </i>
   <i type="logical" name="LOPTICS"> F  </i>
   <v name="STM">      0.00000000      0.00000000      0.00000000      0.00000000      0.00000000      0.00000000      0.00000000</v>
  </separator>
  <separator name="performance" >
   <i type="int" name="NPAR">     2</i>
   <i type="int" name="NSIM">     4</i>
   <i type="int" name="NBLK">    -1</i>
   <i type="logical" name="LPLANE"> T  </i>
   <i type="logical" name="LSCALAPACK"> F  </i>
   <i type="logical" name="LSCAAWARE"> F  </i>
   <i type="logical" name="LSCALU"> F  </i>
   <i type="logical" name="LASYNC"> F  </i>
   <i type="logical" name="LORBITALREAL"> F  </i>
  </separator>
  <separator name="miscellaneous" >
   <i type="int" name="IDIOT">     3</i>
   <i type="logical" name="LMUSIC"> F  </i>
   <v name="POMASS">     26.98200000</v>
   <v name="DARWINR">      0.00000000</v>
   <v name="DARWINV">      1.00000000</v>
   <i type="logical" name="LCORR"> T  </i>
  </separator>
  <i type="logical" name="GGA_COMPAT"> T  </i>
  <i type="logical" name="LBERRY"> F  </i>
  <i type="int" name="ICORELEVEL">     0</i>
  <i type="logical" name="LDAU"> F  </i>
  <i type="int" name="I_CONSTRAINED_M">     0</i>
  <separator name="electronic exchange-correlation" >
   <i type="string" name="GGA">--</i>
   <i type="int" name="VOSKOWN">     0</i>
   <i type="logical" name="LHFCALC"> F  </i>
   <i type="string" name="PRECFOCK"></i>
   <i type="logical" name="LSYMGRAD"> F  </i>
   <i type="logical" name="LHFONE"> F  </i>
   <i type="logical" name="LRHFCALC"> F  </i>
   <i type="logical" name="LTHOMAS"> F  </i>
   <i type="logical" name="LMODELHF"> F  </i>
   <i name="ENCUT4O">     -1.00000000</i>
   <i type="int" name="EXXOEP">     0</i>
   <i type="int" name="FOURORBIT">     0</i>
   <i name="AEXX">      0.00000000</i>
   <i name="HFALPHA">      0.00000000</i>
   <i name="MCALPHA">      0.00000000</i>
   <i name="ALDAX">      1.00000000</i>
   <i name="AGGAX">      1.00000000</i>
   <i name="ALDAC">      1.00000000</i>
   <i name="AGGAC">      1.00000000</i>
   <i type="int" name="NKREDX">     1</i>
   <i type="int" name="NKREDY">     1</i>
   <i type="int" name="NKREDZ">     1</i>
   <i type="logical" name="SHIFTRED"> F  </i>
   <i type="logical" name="ODDONLY"> F  </i>
   <i type="logical" name="EVENONLY"> F  </i>
   <i type="int" name="LMAXFOCK">     0</i>
   <i type="int" name="NMAXFOCKAE">     0</i>
   <i type="logical" name="LFOCKAEDFT"> F  </i>
   <i name="HFSCREEN">      0.00000000</i>
   <i name="HFSCREENC">      0.00000000</i>
   <i type="int" name="NBANDSGWLOW">     0</i>
  </separator>
  <separator name="vdW DFT" >
   <i type="logical" name="LUSE_VDW"> F  </i>
   <i name="Zab_VDW">     -0.84910000</i>
   <i name="PARAM1">      0.12340000</i>
   <i name="PARAM2">      1.00000000</i>
   <i name="PARAM3">      0.00000000</i>
  </separator>
  <separator name="model GW" >
   <i type="int" name="MODEL_GW">     0</i>
   <i name="MODEL_EPS0">      9.96451875</i>
   <i name="MODEL_ALPHA">      1.00000000</i>
  </separator>
  <separator name="linear response parameters" >
   <i type="logical" name="LEPSILON"> F  </i>
   <i type="logical" name="LRPA"> F  </i>
   <i type="logical" name="LNABLA"> F  </i>
   <i type="logical" name="LVEL"> F  </i>
   <i type="int" name="KINTER">     0</i>
   <i name="CSHIFT">      0.10000000</i>
   <i name="OMEGAMAX">     -1.00000000</i>
   <i name="DEG_THRESHOLD">      0.00200000</i>
  </separator>
  <separator name="orbital magnetization" >
   <i type="logical" name="NUCIND"> F  </i>
   <v name="MAGPOS">      0.00000000      0.00000000      0.00000000</v>
   <i type="logical" name="LNICSALL"> T  </i>
   <i type="logical" name="ORBITALMAG"> F  </i>
   <i type="logical" name="LMAGBLOCH"> F  </i>
   <i type="logical" name="LCHIMAG"> F  </i>
   <i type="logical" name="LGAUGE"> T  </i>
   <i type="int" name="MAGATOM">     0</i>
   <v name="MAGDIPOL">      0.00000000      0.00000000      0.00000000</v>
   <v name="AVECCONST">      0.00000000      0.00000000      0.00000000</v>
  </separator>
  <separator name="response functions" >
   <i type="logical" name="LADDER"> F  </i>
   <i type="logical" name="LHARTREE"> T  </i>
   <i type="int" name="IBSE">     0</i>
   <i type="logical" name="LTCTE"> F  </i>
   <i type="logical" name="LTETE"> F  </i>
   <i type="logical" name="LTRIPLET"> F  </i>
   <i type="logical" name="LFXCEPS"> F  </i>
   <i type="logical" name="L2ORDER"> F  </i>
   <i type="logical" name="LUSEW"> F  </i>
   <i name="ENCUTGW">     -2.00000000</i>
   <i name="ENCUTGWSOFT">     -2.00000000</i>
   <i name="ENCUTLF">     -1.00000000</i>
   <i type="int" name="LMAXMP2">    -1</i>
   <i name="SCISSOR">      0.00000000</i>
   <i type="int" name="NOMEGA">     0</i>
   <i type="int" name="NOMEGAR">     0</i>
   <i type="int" name="NBANDSGW">    -1</i>
   <i type="int" name="NBANDSO">    -1</i>
   <i type="int" name="NBANDSV">    -1</i>
   <i type="int" name="NELM">     1</i>
   <i type="int" name="DIM">     3</i>
   <i type="int" name="ANTIRES">     0</i>
   <i name="OMEGAMAX">    -30.00000000</i>
   <i name="OMEGATL">   -200.00000000</i>
   <i type="int" name="OMEGAGRID">     0</i>
   <i name="CSHIFT">     -0.10000000</i>
   <i type="logical" name="SELFENERGY"> F  </i>
   <i type="logical" name="LSPECTRAL"> F  </i>
   <i type="logical" name="ODDONLYGW"> F  </i>
   <i type="logical" name="EVENONLYGW"> F  </i>
   <i type="int" name="NKREDLFX">     1</i>
   <i type="int" name="NKREDLFY">     1</i>
   <i type="int" name="NKREDLFZ">     1</i>
   <i type="int" name="MAXMEM">  1800</i>
   <i type="int" name="TELESCOPE">     0</i>
  </separator>
 </parameters>
 <atominfo>
  <atoms>       1 </atoms>
  <types>       1 </types>
  <array name="atoms" >
   <dimension dim="1">ion</dimension>
   <field type="string">element</field>
   <field type="int">atomtype</field>
   <set>
    <rc><c>Al</c><c>   1</c></rc>
   </set>
  </array>
  <array name="atomtypes" >
   <dimension dim="1">type</dimension>
   <field type="int">atomspertype</field>
   <field type="string">element</field>
   <field>mass</field>
   <field>valence</field>
   <field type="string">pseudopotential</field>
   <set>
    <rc><c>   1</c><c>Al</c><c>     26.98200000</c><c>      3.00000000</c><c>  PAW Al                                </c></rc>
   </set>
  </array>
 </atominfo>
 <structure name="initialpos" >
  <crystal>
   <varray name="basis" >
    <v>       0.00000000       2.02500000       2.02500000 </v>
    <v>       2.02500000       0.00000000       2.02500000 </v>
    <v>       2.02500000       2.02500000       0.00000000 </v>
   </varray>
   <i name="volume">     16.60753125 </i>
   <varray name="rec_basis" >
    <v>      -0.24691358       0.24691358       0.24691358 </v>
    <v>       0.24691358      -0.24691358       0.24691358 </v>
    <v>       0.24691358       0.24691358      -0.24691358 </v>
   </varray>
  </crystal>
  <varray name="positions" >
   <v>       0.00000000       0.00000000       0.00000000 </v>
  </varray>
 </structure>
 <calculation>
  <scstep>
   <time name="dav">    0.86    0.86</time>
   <time name="total">    0.89    0.89</time>
   <energy>
    <i name="alphaZ">     -0.15332662 </i>
    <i name="ewald">    -73.35670894 </i>
    <i name="hartreedc">     -0.10639426 </i>
    <i name="XCdc">    -26.29451463 </i>
    <i name="pawpsdc">     35.88202749 </i>
    <i name="pawaedc">     -3.84853160 </i>
    <i name="eentropy">      0.00140456 </i>
    <i name="bandstr">     11.22404195 </i>
    <i name="atom">     53.68800704 </i>
    <i name="e_fr_energy">     -2.96399501 </i>
    <i name="e_wo_entrp">     -2.96539957 </i>
    <i name="e_0_energy">     -2.96446320 </i>
   </energy>
  </scstep>
  <scstep>
   <time name="dav">    0.93    0.93</time>
   <time name="total">    0.94    0.94</time>
   <energy>
    <i name="e_fr_energy">     -3.39905631 </i>
    <i name="e_wo_entrp">     -3.39774525 </i>
    <i name="e_0_energy">     -3.39861929 </i>
   </energy>
  </scstep>
  <scstep>
   <time name="dav">    0.91    0.92</time>
   <time name="total">    0.92    0.93</time>
   <energy>
    <i name="e_fr_energy">     -3.40082437 </i>
    <i name="e_wo_entrp">     -3.39951370 </i>
    <i name="e_0_energy">     -3.40038748 </i>
   </energy>
  </scstep>
  <scstep>
   <time name="dav">    0.97    0.97</time>
   <time name="total">    0.98    0.99</time>
   <energy>
    <i name="e_fr_energy">     -3.40082607 </i>
    <i name="e_wo_entrp">     -3.39951539 </i>
    <i name="e_0_energy">     -3.40038917 </i>
   </energy>
  </scstep>
  <scstep>
   <time name="dav">    0.85    0.85</time>
   <time name="total">    0.86    0.87</time>
   <energy>
    <i name="e_fr_energy">     -3.40082607 </i>
    <i name="e_wo_entrp">     -3.39951539 </i>
    <i name="e_0_energy">     -3.40038918 </i>
   </energy>
  </scstep>
  <scstep>
   <time name="dav">    0.86    0.86</time>
   <time name="total">    0.87    0.88</time>
   <energy>
    <i name="alphaZ">     -0.15332662 </i>
    <i name="ewald">    -73.35670894 </i>
    <i name="hartreedc">     -0.10639426 </i>
    <i name="XCdc">    -26.29451463 </i>
    <i name="pawpsdc">     35.88202749 </i>
    <i name="pawaedc">     -3.84853160 </i>
    <i name="eentropy">     -0.00131067 </i>
    <i name="bandstr">     10.78992613 </i>
    <i name="atom">     53.68800704 </i>
    <i name="e_fr_energy">     -3.40082607 </i>
    <i name="e_wo_entrp">     -3.39951539 </i>
    <i name="e_0_energy">     -3.40038918 </i>
   </energy>
  </scstep>
  <structure>
   <crystal>
    <varray name="basis" >
     <v>       0.00000000       2.02500000       2.02500000 </v>
     <v>       2.02500000       0.00000000       2.02500000 </v>
     <v>       2.02500000       2.02500000       0.00000000 </v>
    </varray>
    <i name="volume">     16.60753125 </i>
    <varray name="rec_basis" >
     <v>      -0.24691358       0.24691358       0.24691358 </v>
     <v>       0.24691358      -0.24691358       0.24691358 </v>
     <v>       0.24691358       0.24691358      -0.24691358 </v>
    </varray>
   </crystal>
   <varray name="positions" >
    <v>       0.00000000       0.00000000       0.00000000 </v>
   </varray>
  </structure>
  <varray name="forces" >
   <v>       0.00000000       0.00000000       0.00000000 </v>
  </varray>
  <varray name="stress" >
   <v>     -25.07297800       0.00000000       0.00000000 </v>
   <v>       0.00000000     -25.07297800       0.00000000 </v>
   <v>       0.00000000       0.00000000     -25.07297800 </v>
  </varray>
  <energy>
   <i name="e_fr_energy">     -3.40082607 </i>
   <i name="e_wo_entrp">     -3.40038918 </i>
   <i name="e_0_energy">     -0.00131067 </i>
  </energy>
  <time name="totalsc">    5.92    5.97</time>
  <eigenvalues>
   <array>
    <dimension dim="1">band</dimension>
    <dimension dim="2">kpoint</dimension>
    <dimension dim="3">spin</dimension>
    <field>eigene</field>
    <field>occ</field>
    <set>
     <set comment="spin 1">
      <set comment="kpoint 1">
       <r>    3.3507    1.0000 </r>
       <r>    3.5263    1.0000 </r>
       <r>   19.1913    0.0000 </r>
       <r>   19.1913    0.0000 </r>
       <r>   19.3864    0.0000 </r>
       <r>   19.3864    0.0000 </r>
      </set>
      <set comment="kpoint 2">
       <r>    3.3527    1.0000 </r>
       <r>    3.5285    1.0000 </r>
       <r>   19.0463    0.0000 </r>
       <r>   19.0678    0.0000 </r>
       <r>   19.4863    0.0000 </r>
       <r>   19.5139    0.0000 </r>
      </set>
      <set comment="kpoint 3">
       <r>    3.3589    1.0000 </r>
       <r>    3.5350    1.0000 </r>
       <r>   18.8000    0.0000 </r>
       <r>   18.8838    0.0000 </r>
       <r>   19.5995    0.0000 </r>
       <r>   19.7095    0.0000 </r>
      </set>
      <set comment="kpoint 4">
       <r>    3.3692    1.0000 </r>
       <r>    3.5459    1.0000 </r>
       <r>   18.5177    0.0000 </r>
       <r>   18.6967    0.0000 </r>
       <r>   19.6679    0.0000 </r>
       <r>   19.9160    0.0000 </r>
      </set>
      <set comment="kpoint 5">
       <r>    3.3836    1.0000 </r>
       <r>    3.5611    1.0000 </r>
       <r>   18.2116    0.0000 </r>
       <r>   18.5117    0.0000 </r>
       <r>   19.6898    0.0000 </r>
       <r>   20.1283    0.0000 </r>
      </set>
      <set comment="kpoint 6">
       <r>    3.4022    1.0000 </r>
       <r>    3.5807    1.0000 </r>
       <r>   17.8887    0.0000 </r>
       <r>   18.3298    0.0000 </r>
       <r>   19.6711    0.0000 </r>
       <r>   20.3452    0.0000 </r>
      </set>
      <set comment="kpoint 7">
       <r>    3.4248    1.0000 </r>
       <r>    3.6046    1.0000 </r>
       <r>   17.5541    0.0000 </r>
       <r>   18.1515    0.0000 </r>
       <r>   19.6194    0.0000 </r>
       <r>   20.5664    0.0000 </r>
      </set>
      <set comment="kpoint 8">
       <r>    3.4516    1.0000 </r>
       <r>    3.6328    1.0000 </r>
       <r>   17.2112    0.0000 </r>
       <r>   17.9768    0.0000 </r>
       <r>   19.5426    0.0000 </r>
       <r>   20.7917    0.0000 </r>
      </set>
      <set comment="kpoint 9">
       <r>    3.4825    1.0000 </r>
       <r>    3.6645    1.0000 </r>
       <r>   16.8622    0.0000 </r>
       <r>   17.8055    0.0000 </r>
       <r>   19.4452    0.0000 </r>
       <r>   21.0197    0.0000 </r>
      </set>
      <set comment="kpoint 10">
       <r>    3.5175    1.0000 </r>
       <r>    3.7014    1.0000 </r>
       <r>   16.5102    0.0000 </r>
       <r>   17.6384    0.0000 </r>
       <r>   19.3360    0.0000 </r>
       <r>   21.2529    0.0000 </r>
      </set>
      <set comment="kpoint 11">
       <r>    3.5566    1.0000 </r>
       <r>    3.7426    1.0000 </r>
       <r>   16.1591    0.0000 </r>
       <r>   17.4751    0.0000 </r>
       <r>   19.2183    0.0000 </r>
       <r>   21.4900    0.0000 </r>
      </set>
      <set comment="kpoint 12">
       <r>    3.5998    1.0000 </r>
       <r>    3.7876    1.0000 </r>
       <r>   15.8036    0.0000 </r>
       <r>   17.3156    0.0000 </r>
       <r>   19.0920    0.0000 </r>
       <r>   21.7309    0.0000 </r>
      </set>
      <set comment="kpoint 13">
       <r>    3.6472    1.0000 </r>
       <r>    3.8373    1.0000 </r>
       <r>   15.4483    0.0000 </r>
       <r>   17.1600    0.0000 </r>
       <r>   18.9620    0.0000 </r>
       <r>   21.9758    0.0000 </r>
      </set>
      <set comment="kpoint 14">
       <r>    3.6986    1.0000 </r>
       <r>    3.8913    1.0000 </r>
       <r>   15.0937    0.0000 </r>
       <r>   17.0083    0.0000 </r>
       <r>   18.8292    0.0000 </r>
       <r>   22.2244    0.0000 </r>
      </set>
      <set comment="kpoint 15">
       <r>    3.7543    1.0000 </r>
       <r>    3.9496    1.0000 </r>
       <r>   14.7403    0.0000 </r>
       <r>   16.8604    0.0000 </r>
       <r>   18.6951    0.0000 </r>
       <r>   22.4769    0.0000 </r>
      </set>
      <set comment="kpoint 16">
       <r>    3.8139    1.0000 </r>
       <r>    4.0120    1.0000 </r>
       <r>   14.3886    0.0000 </r>
       <r>   16.7164    0.0000 </r>
       <r>   18.5605    0.0000 </r>
       <r>   22.7331    0.0000 </r>
      </set>
      <set comment="kpoint 17">
       <r>    3.8777    1.0000 </r>
       <r>    4.0786    1.0000 </r>
       <r>   14.0388    0.0000 </r>
       <r>   16.5763    0.0000 </r>
       <r>   18.4263    0.0000 </r>
       <r>   22.9931    0.0000 </r>
      </set>
      <set comment="kpoint 18">
       <r>    3.9455    1.0000 </r>
       <r>    4.1493    1.0000 </r>
       <r>   13.6915    0.0000 </r>
       <r>   16.4400    0.0000 </r>
       <r>   18.2931    0.0000 </r>
       <r>   23.2568    0.0000 </r>
      </set>
      <set comment="kpoint 19">
       <r>    4.0174    1.0000 </r>
       <r>    4.2242    1.0000 </r>
       <r>   13.3467    0.0000 </r>
       <r>   16.3076    0.0000 </r>
       <r>   18.1614    0.0000 </r>
       <r>   23.5242    0.0000 </r>
      </set>
      <set comment="kpoint 20">
       <r>    4.0935    1.0000 </r>
       <r>    4.3033    1.0000 </r>
       <r>   13.0048    0.0000 </r>
       <r>   16.1821    0.0000 </r>
       <r>   18.0341    0.0000 </r>
       <r>   23.8120    0.0000 </r>
      </set>
      <set comment="kpoint 21">
       <r>    4.1735    1.0000 </r>
       <r>    4.3863    1.0000 </r>
       <r>   12.6658    0.0000 </r>
       <r>   16.0572    0.0000 </r>
       <r>   17.9065    0.0000 </r>
       <r>   24.0873    0.0000 </r>
      </set>
      <set comment="kpoint 22">
       <r>    4.2575    1.0000 </r>
       <r>    4.4733    1.0000 </r>
       <r>   12.3301    0.0000 </r>
       <r>   15.9359    0.0000 </r>
       <r>   17.7805    0.0000 </r>
       <r>   24.3642    0.0000 </r>
      </set>
      <set comment="kpoint 23">
       <r>    4.3456    1.0000 </r>
       <r>    4.5642    1.0000 </r>
       <r>   11.9978    0.0000 </r>
       <r>   15.8188    0.0000 </r>
       <r>   17.6580    0.0000 </r>
       <r>   24.6465    0.0000 </r>
      </set>
      <set comment="kpoint 24">
       <r>    4.4377    1.0000 </r>
       <r>    4.6590    1.0000 </r>
       <r>   11.6691    0.0000 </r>
       <r>   15.7055    0.0000 </r>
       <r>   17.5384    0.0000 </r>
       <r>   24.9322    0.0000 </r>
      </set>
      <set comment="kpoint 25">
       <r>    4.5339    1.0000 </r>
       <r>    4.7577    1.0000 </r>
       <r>   11.3441    0.0000 </r>
       <r>   15.5962    0.0000 </r>
       <r>   17.4218    0.0000 </r>
       <r>   25.2214    0.0000 </r>
      </set>
      <set comment="kpoint 26">
       <r>    4.6339    1.0000 </r>
       <r>    4.8600    1.0000 </r>
       <r>   11.0231    0.0000 </r>
       <r>   15.4906    0.0000 </r>
       <r>   17.3085    0.0000 </r>
       <r>   25.5139    0.0000 </r>
      </set>
      <set comment="kpoint 27">
       <r>    4.7382    1.0000 </r>
       <r>    4.9661    1.0000 </r>
       <r>   10.7076    0.0000 </r>
       <r>   15.3893    0.0000 </r>
       <r>   17.1992    0.0000 </r>
       <r>   25.8138    0.0000 </r>
      </set>
      <set comment="kpoint 28">
       <r>    4.8458    1.0000 </r>
       <r>    5.0755    1.0000 </r>
       <r>   10.3950    0.0000 </r>
       <r>   15.2914    0.0000 </r>
       <r>   17.0925    0.0000 </r>
       <r>   26.1194    0.0000 </r>
      </set>
      <set comment="kpoint 29">
       <r>    4.9573    1.0000 </r>
       <r>    5.1881    1.0000 </r>
       <r>   10.0872    0.0000 </r>
       <r>   15.1974    0.0000 </r>
       <r>   16.9894    0.0000 </r>
       <r>   26.1691    0.0000 </r>
      </set>
      <set comment="kpoint 30">
       <r>    5.0724    1.0000 </r>
       <r>    5.3031    1.0000 </r>
       <r>    9.7844    0.0000 </r>
       <r>   15.1071    0.0000 </r>
       <r>   16.8893    0.0000 </r>
       <r>   25.9416    0.0000 </r>
      </set>
      <set comment="kpoint 31">
       <r>    5.1908    1.0000 </r>
       <r>    5.4215    1.0000 </r>
       <r>    9.4874    0.0000 </r>
       <r>   15.0208    0.0000 </r>
       <r>   16.7933    0.0000 </r>
       <r>   25.7072    0.0000 </r>
      </set>
      <set comment="kpoint 32">
       <r>    5.3119    1.0000 </r>
       <r>    5.5422    1.0000 </r>
       <r>    9.1958    0.0000 </r>
       <r>   14.9384    0.0000 </r>
       <r>   16.6994    0.0000 </r>
       <r>   25.4614    0.0000 </r>
      </set>
      <set comment="kpoint 33">
       <r>    5.4359    1.0000 </r>
       <r>    5.6649    1.0000 </r>
       <r>    8.9128    0.0000 </r>
       <r>   14.8609    0.0000 </r>
       <r>   16.6108    0.0000 </r>
       <r>   25.2210    0.0000 </r>
      </set>
      <set comment="kpoint 34">
       <r>    5.5611    1.0000 </r>
       <r>    5.7888    1.0000 </r>
       <r>    8.6389    0.0000 </r>
       <r>   14.7861    0.0000 </r>
       <r>   16.5260    0.0000 </r>
       <r>   24.9777    0.0000 </r>
      </set>
      <set comment="kpoint 35">
       <r>    5.6859    1.0000 </r>
       <r>    5.9132    1.0000 </r>
       <r>    8.3767    0.0000 </r>
       <r>   14.7151    0.0000 </r>
       <r>   16.4451    0.0000 </r>
       <r>   24.7343    0.0000 </r>
      </set>
      <set comment="kpoint 36">
       <r>    5.8066    1.0000 </r>
       <r>    6.0378    1.0000 </r>
       <r>    8.1302    0.0000 </r>
       <r>   14.6479    0.0000 </r>
       <r>   16.3679    0.0000 </r>
       <r>   24.4916    0.0000 </r>
      </set>
      <set comment="kpoint 37">
       <r>    5.9161    1.0000 </r>
       <r>    6.1629    1.0000 </r>
       <r>    7.9062    0.0000 </r>
       <r>   14.5846    0.0000 </r>
       <r>   16.2946    0.0000 </r>
       <r>   24.2501    0.0000 </r>
      </set>
      <set comment="kpoint 38">
       <r>    6.0016    1.0000 </r>
       <r>    6.2905    1.0000 </r>
       <r>    7.7154   -0.0001 </r>
       <r>   14.5252    0.0000 </r>
       <r>   16.2252    0.0000 </r>
       <r>   24.0103    0.0000 </r>
      </set>
      <set comment="kpoint 39">
       <r>    6.0439    1.0000 </r>
       <r>    6.4243    1.0000 </r>
       <r>    7.5734   -0.0035 </r>
       <r>   14.4695    0.0000 </r>
       <r>   16.1596    0.0000 </r>
       <r>   23.7726    0.0000 </r>
      </set>
      <set comment="kpoint 40">
       <r>    6.0248    1.0000 </r>
       <r>    6.5667    1.0003 </r>
       <r>    7.4961   -0.0128 </r>
       <r>   14.4178    0.0000 </r>
       <r>   16.0979    0.0000 </r>
       <r>   23.5372    0.0000 </r>
      </set>
      <set comment="kpoint 41">
       <r>    6.0248    1.0000 </r>
       <r>    6.5667    1.0003 </r>
       <r>    7.4961   -0.0128 </r>
       <r>   14.4178    0.0000 </r>
       <r>   16.0979    0.0000 </r>
       <r>   23.5372    0.0000 </r>
      </set>
      <set comment="kpoint 42">
       <r>    6.0255    1.0000 </r>
       <r>    6.5673    1.0003 </r>
       <r>    7.4968   -0.0126 </r>
       <r>   14.3929    0.0000 </r>
       <r>   16.1239    0.0000 </r>
       <r>   23.5378    0.0000 </r>
      </set>
      <set comment="kpoint 43">
       <r>    6.0276    1.0000 </r>
       <r>    6.5692    1.0003 </r>
       <r>    7.4988   -0.0123 </r>
       <r>   14.3226    0.0000 </r>
       <r>   16.1976    0.0000 </r>
       <r>   23.5397    0.0000 </r>
      </set>
      <set comment="kpoint 44">
       <r>    6.0310    1.0000 </r>
       <r>    6.5724    1.0003 </r>
       <r>    7.5022   -0.0117 </r>
       <r>   14.2163    0.0000 </r>
       <r>   16.3095    0.0000 </r>
       <r>   23.5428    0.0000 </r>
      </set>
      <set comment="kpoint 45">
       <r>    6.0360    1.0000 </r>
       <r>    6.5771    1.0004 </r>
       <r>    7.5070   -0.0109 </r>
       <r>   14.0845    0.0000 </r>
       <r>   16.4501    0.0000 </r>
       <r>   23.5482    0.0000 </r>
      </set>
      <set comment="kpoint 46">
       <r>    6.0421    1.0000 </r>
       <r>    6.5829    1.0004 </r>
       <r>    7.5131   -0.0099 </r>
       <r>   13.9350    0.0000 </r>
       <r>   16.6096    0.0000 </r>
       <r>   23.5537    0.0000 </r>
      </set>
      <set comment="kpoint 47">
       <r>    6.0496    1.0000 </r>
       <r>    6.5899    1.0005 </r>
       <r>    7.5206   -0.0089 </r>
       <r>   13.7739    0.0000 </r>
       <r>   16.7831    0.0000 </r>
       <r>   23.5604    0.0000 </r>
      </set>
      <set comment="kpoint 48">
       <r>    6.0585    1.0000 </r>
       <r>    6.5982    1.0006 </r>
       <r>    7.5293   -0.0077 </r>
       <r>   13.6050    0.0000 </r>
       <r>   16.9667    0.0000 </r>
       <r>   23.5683    0.0000 </r>
      </set>
      <set comment="kpoint 49">
       <r>    6.0687    1.0000 </r>
       <r>    6.6078    1.0007 </r>
       <r>    7.5395   -0.0065 </r>
       <r>   13.4309    0.0000 </r>
       <r>   17.1577    0.0000 </r>
       <r>   23.5775    0.0000 </r>
      </set>
      <set comment="kpoint 50">
       <r>    6.0803    1.0000 </r>
       <r>    6.6186    1.0010 </r>
       <r>    7.5509   -0.0053 </r>
       <r>   13.2533    0.0000 </r>
       <r>   17.3544    0.0000 </r>
       <r>   23.5878    0.0000 </r>
      </set>
      <set comment="kpoint 51">
       <r>    6.0932    1.0000 </r>
       <r>    6.6306    1.0013 </r>
       <r>    7.5636   -0.0042 </r>
       <r>   13.0735    0.0000 </r>
       <r>   17.5556    0.0000 </r>
       <r>   23.5994    0.0000 </r>
      </set>
      <set comment="kpoint 52">
       <r>    6.1075    1.0000 </r>
       <r>    6.6439    1.0017 </r>
       <r>    7.5777   -0.0032 </r>
       <r>   12.8924    0.0000 </r>
       <r>   17.7604    0.0000 </r>
       <r>   23.6121    0.0000 </r>
      </set>
      <set comment="kpoint 53">
       <r>    6.1232    1.0000 </r>
       <r>    6.6584    1.0023 </r>
       <r>    7.5930   -0.0024 </r>
       <r>   12.7106    0.0000 </r>
       <r>   17.9681    0.0000 </r>
       <r>   23.6261    0.0000 </r>
      </set>
      <set comment="kpoint 54">
       <r>    6.1403    1.0000 </r>
       <r>    6.6741    1.0031 </r>
       <r>    7.6097   -0.0017 </r>
       <r>   12.5285    0.0000 </r>
       <r>   18.1783    0.0000 </r>
       <r>   23.6411    0.0000 </r>
      </set>
      <set comment="kpoint 55">
       <r>    6.1587    1.0000 </r>
       <r>    6.6909    1.0043 </r>
       <r>    7.6275   -0.0011 </r>
       <r>   12.3466    0.0000 </r>
       <r>   18.3907    0.0000 </r>
       <r>   23.6574    0.0000 </r>
      </set>
      <set comment="kpoint 56">
       <r>    6.1785    1.0000 </r>
       <r>    6.7090    1.0059 </r>
       <r>    7.6467   -0.0007 </r>
       <r>   12.1651    0.0000 </r>
       <r>   18.6048    0.0000 </r>
       <r>   23.6748    0.0000 </r>
      </set>
      <set comment="kpoint 57">
       <r>    6.1996    1.0000 </r>
       <r>    6.7281    1.0081 </r>
       <r>    7.6670   -0.0005 </r>
       <r>   11.9844    0.0000 </r>
       <r>   18.8205    0.0000 </r>
       <r>   23.6932    0.0000 </r>
      </set>
      <set comment="kpoint 58">
       <r>    6.2221    1.0000 </r>
       <r>    6.7484    1.0111 </r>
       <r>    7.6885   -0.0003 </r>
       <r>   11.8045    0.0000 </r>
       <r>   19.0376    0.0000 </r>
       <r>   23.7128    0.0000 </r>
      </set>
      <set comment="kpoint 59">
       <r>    6.2460    1.0000 </r>
       <r>    6.7697    1.0149 </r>
       <r>    7.7111   -0.0001 </r>
       <r>   11.6258    0.0000 </r>
       <r>   19.2560    0.0000 </r>
       <r>   23.7335    0.0000 </r>
      </set>
      <set comment="kpoint 60">
       <r>    6.2709    1.0000 </r>
       <r>    6.7919    1.0196 </r>
       <r>    7.7346   -0.0001 </r>
       <r>   11.4480    0.0000 </r>
       <r>   19.4752    0.0000 </r>
       <r>   23.7520    0.0000 </r>
      </set>
      <set comment="kpoint 61">
       <r>    6.2975    1.0000 </r>
       <r>    6.8152    1.0250 </r>
       <r>    7.7594    0.0000 </r>
       <r>   11.2720    0.0000 </r>
       <r>   19.6954    0.0000 </r>
       <r>   23.7747    0.0000 </r>
      </set>
      <set comment="kpoint 62">
       <r>    6.3255    1.0000 </r>
       <r>    6.8396    1.0303 </r>
       <r>    7.7854    0.0000 </r>
       <r>   11.0978    0.0000 </r>
       <r>   19.9164    0.0000 </r>
       <r>   23.7999    0.0000 </r>
      </set>
      <set comment="kpoint 63">
       <r>    6.3549    1.0000 </r>
       <r>    6.8647    1.0344 </r>
       <r>    7.8121    0.0000 </r>
       <r>   10.9255    0.0000 </r>
       <r>   20.1379    0.0000 </r>
       <r>   23.8244    0.0000 </r>
      </set>
      <set comment="kpoint 64">
       <r>    6.3856    1.0000 </r>
       <r>    6.8905    1.0352 </r>
       <r>    7.8396    0.0000 </r>
       <r>   10.7552    0.0000 </r>
       <r>   20.3599    0.0000 </r>
       <r>   23.8498    0.0000 </r>
      </set>
      <set comment="kpoint 65">
       <r>    6.4177    1.0000 </r>
       <r>    6.9169    1.0296 </r>
       <r>    7.8679    0.0000 </r>
       <r>   10.5873    0.0000 </r>
       <r>   20.5821    0.0000 </r>
       <r>   23.8759    0.0000 </r>
      </set>
      <set comment="kpoint 66">
       <r>    6.4511    1.0000 </r>
       <r>    6.9439    1.0141 </r>
       <r>    7.8967    0.0000 </r>
       <r>   10.4222    0.0000 </r>
       <r>   20.8045    0.0000 </r>
       <r>   23.9027    0.0000 </r>
      </set>
      <set comment="kpoint 67">
       <r>    6.4854    1.0000 </r>
       <r>    6.9708    0.9851 </r>
       <r>    7.9256    0.0000 </r>
       <r>   10.2593    0.0000 </r>
       <r>   21.0223    0.0000 </r>
       <r>   23.9294    0.0000 </r>
      </set>
      <set comment="kpoint 68">
       <r>    6.5216    1.0001 </r>
       <r>    6.9981    0.9392 </r>
       <r>    7.9551    0.0000 </r>
       <r>   10.1014    0.0000 </r>
       <r>   21.2450    0.0000 </r>
       <r>   23.9572    0.0000 </r>
      </set>
      <set comment="kpoint 69">
       <r>    6.5591    1.0002 </r>
       <r>    7.0251    0.8753 </r>
       <r>    7.9842    0.0000 </r>
       <r>    9.9471    0.0000 </r>
       <r>   21.4662    0.0000 </r>
       <r>   23.9852    0.0000 </r>
      </set>
      <set comment="kpoint 70">
       <r>    6.5980    1.0006 </r>
       <r>    7.0516    0.7954 </r>
       <r>    8.0128    0.0000 </r>
       <r>    9.7979    0.0000 </r>
       <r>   21.6865    0.0000 </r>
       <r>   24.0131    0.0000 </r>
      </set>
      <set comment="kpoint 71">
       <r>    6.6382    1.0015 </r>
       <r>    7.0770    0.7046 </r>
       <r>    8.0402    0.0000 </r>
       <r>    9.6547    0.0000 </r>
       <r>   21.9055    0.0000 </r>
       <r>   24.0407    0.0000 </r>
      </set>
      <set comment="kpoint 72">
       <r>    6.6798    1.0035 </r>
       <r>    7.1007    0.6106 </r>
       <r>    8.0658    0.0000 </r>
       <r>    9.5189    0.0000 </r>
       <r>   22.1228    0.0000 </r>
       <r>   24.0676    0.0000 </r>
      </set>
      <set comment="kpoint 73">
       <r>    6.7228    1.0075 </r>
       <r>    7.1218    0.5224 </r>
       <r>    8.0888    0.0000 </r>
       <r>    9.3923    0.0000 </r>
       <r>   22.3379    0.0000 </r>
       <r>   24.0933    0.0000 </r>
      </set>
      <set comment="kpoint 74">
       <r>    6.7671    1.0144 </r>
       <r>    7.1391    0.4490 </r>
       <r>    8.1082    0.0000 </r>
       <r>    9.2768    0.0000 </r>
       <r>   22.5500    0.0000 </r>
       <r>   24.1174    0.0000 </r>
      </set>
      <set comment="kpoint 75">
       <r>    6.8129    1.0244 </r>
       <r>    7.1513    0.3980 </r>
       <r>    8.1228    0.0000 </r>
       <r>    9.1752    0.0000 </r>
       <r>   22.7584    0.0000 </r>
       <r>   24.1391    0.0000 </r>
      </set>
      <set comment="kpoint 76">
       <r>    6.8599    1.0338 </r>
       <r>    7.1566    0.3767 </r>
       <r>    8.1318    0.0000 </r>
       <r>    9.0902    0.0000 </r>
       <r>   22.9622    0.0000 </r>
       <r>   24.1577    0.0000 </r>
      </set>
      <set comment="kpoint 77">
       <r>    6.9084    1.0323 </r>
       <r>    7.1525    0.3932 </r>
       <r>    8.1349    0.0000 </r>
       <r>    9.0240    0.0000 </r>
       <r>   23.1599    0.0000 </r>
       <r>   24.1725    0.0000 </r>
      </set>
      <set comment="kpoint 78">
       <r>    6.9582    1.0005 </r>
       <r>    7.1368    0.4587 </r>
       <r>    8.1335    0.0000 </r>
       <r>    8.9781    0.0000 </r>
       <r>   23.3500    0.0000 </r>
       <r>   24.0128    0.0000 </r>
      </set>
      <set comment="kpoint 79">
       <r>    7.0094    0.9147 </r>
       <r>    7.1072    0.5837 </r>
       <r>    8.1300    0.0000 </r>
       <r>    8.9521    0.0000 </r>
       <r>   23.5301    0.0000 </r>
       <r>   23.8540    0.0000 </r>
      </set>
      <set comment="kpoint 80">
       <r>    7.0620    0.7599 </r>
       <r>    7.0620    0.7599 </r>
       <r>    8.1280    0.0000 </r>
       <r>    8.9440    0.0000 </r>
       <r>   23.6963    0.0000 </r>
       <r>   23.6964    0.0000 </r>
      </set>
      <set comment="kpoint 81">
       <r>    7.0620    0.7599 </r>
       <r>    7.0620    0.7599 </r>
       <r>    8.1280    0.0000 </r>
       <r>    8.9440    0.0000 </r>
       <r>   23.6963    0.0000 </r>
       <r>   23.6963    0.0000 </r>
      </set>
      <set comment="kpoint 82">
       <r>    6.8355    1.0295 </r>
       <r>    7.1753    0.3023 </r>
       <r>    8.2089    0.0000 </r>
       <r>    9.0029    0.0000 </r>
       <r>   23.3884    0.0000 </r>
       <r>   23.8192    0.0000 </r>
      </set>
      <set comment="kpoint 83">
       <r>    6.4546    1.0000 </r>
       <r>    7.3023   -0.0071 </r>
       <r>    8.4011    0.0000 </r>
       <r>    9.1442    0.0000 </r>
       <r>   23.0930    0.0000 </r>
       <r>   23.7368    0.0000 </r>
      </set>
      <set comment="kpoint 84">
       <r>    6.0159    1.0000 </r>
       <r>    7.4430   -0.0240 </r>
       <r>    8.6305    0.0000 </r>
       <r>    9.3454    0.0000 </r>
       <r>   22.8102    0.0000 </r>
       <r>   23.6179    0.0000 </r>
      </set>
      <set comment="kpoint 85">
       <r>    5.5594    1.0000 </r>
       <r>    7.5978   -0.0022 </r>
       <r>    8.8646    0.0000 </r>
       <r>    9.6005    0.0000 </r>
       <r>   22.5420    0.0000 </r>
       <r>   23.4926    0.0000 </r>
      </set>
      <set comment="kpoint 86">
       <r>    5.1000    1.0000 </r>
       <r>    7.7658    0.0000 </r>
       <r>    9.0917    0.0000 </r>
       <r>    9.9028    0.0000 </r>
       <r>   22.2853    0.0000 </r>
       <r>   23.3586    0.0000 </r>
      </set>
      <set comment="kpoint 87">
       <r>    4.6448    1.0000 </r>
       <r>    7.9476    0.0000 </r>
       <r>    9.3157    0.0000 </r>
       <r>   10.2435    0.0000 </r>
       <r>   22.0410    0.0000 </r>
       <r>   23.2212    0.0000 </r>
      </set>
      <set comment="kpoint 88">
       <r>    4.1972    1.0000 </r>
       <r>    8.1432    0.0000 </r>
       <r>    9.5409    0.0000 </r>
       <r>   10.6146    0.0000 </r>
       <r>   21.8098    0.0000 </r>
       <r>   23.0819    0.0000 </r>
      </set>
      <set comment="kpoint 89">
       <r>    3.7594    1.0000 </r>
       <r>    8.3525    0.0000 </r>
       <r>    9.7710    0.0000 </r>
       <r>   11.0097    0.0000 </r>
       <r>   21.5916    0.0000 </r>
       <r>   22.9421    0.0000 </r>
      </set>
      <set comment="kpoint 90">
       <r>    3.3323    1.0000 </r>
       <r>    8.5755    0.0000 </r>
       <r>   10.0089    0.0000 </r>
       <r>   11.4250    0.0000 </r>
       <r>   21.3866    0.0000 </r>
       <r>   22.8036    0.0000 </r>
      </set>
      <set comment="kpoint 91">
       <r>    2.9168    1.0000 </r>
       <r>    8.8123    0.0000 </r>
       <r>   10.2559    0.0000 </r>
       <r>   11.8577    0.0000 </r>
       <r>   21.1914    0.0000 </r>
       <r>   22.6682    0.0000 </r>
      </set>
      <set comment="kpoint 92">
       <r>    2.5130    1.0000 </r>
       <r>    9.0628    0.0000 </r>
       <r>   10.5133    0.0000 </r>
       <r>   12.3065    0.0000 </r>
       <r>   21.0124    0.0000 </r>
       <r>   22.5373    0.0000 </r>
      </set>
      <set comment="kpoint 93">
       <r>    2.1217    1.0000 </r>
       <r>    9.3268    0.0000 </r>
       <r>   10.7811    0.0000 </r>
       <r>   12.7687    0.0000 </r>
       <r>   20.8463    0.0000 </r>
       <r>   22.4111    0.0000 </r>
      </set>
      <set comment="kpoint 94">
       <r>    1.7436    1.0000 </r>
       <r>    9.6048    0.0000 </r>
       <r>   11.0600    0.0000 </r>
       <r>   13.2459    0.0000 </r>
       <r>   20.6936    0.0000 </r>
       <r>   22.2937    0.0000 </r>
      </set>
      <set comment="kpoint 95">
       <r>    1.3786    1.0000 </r>
       <r>    9.8965    0.0000 </r>
       <r>   11.3498    0.0000 </r>
       <r>   13.7364    0.0000 </r>
       <r>   20.5541    0.0000 </r>
       <r>   22.1845    0.0000 </r>
      </set>
      <set comment="kpoint 96">
       <r>    1.0269    1.0000 </r>
       <r>   10.2019    0.0000 </r>
       <r>   11.6506    0.0000 </r>
       <r>   14.2396    0.0000 </r>
       <r>   20.4277    0.0000 </r>
       <r>   22.0843    0.0000 </r>
      </set>
      <set comment="kpoint 97">
       <r>    0.6885    1.0000 </r>
       <r>   10.5211    0.0000 </r>
       <r>   11.9622    0.0000 </r>
       <r>   14.7551    0.0000 </r>
       <r>   20.3144    0.0000 </r>
       <r>   21.9935    0.0000 </r>
      </set>
      <set comment="kpoint 98">
       <r>    0.3635    1.0000 </r>
       <r>   10.8539    0.0000 </r>
       <r>   12.2843    0.0000 </r>
       <r>   15.2818    0.0000 </r>
       <r>   20.2142    0.0000 </r>
       <r>   21.9114    0.0000 </r>
      </set>
      <set comment="kpoint 99">
       <r>    0.0524    1.0000 </r>
       <r>   11.2004    0.0000 </r>
       <r>   12.6168    0.0000 </r>
       <r>   15.8205    0.0000 </r>
       <r>   20.1269    0.0000 </r>
       <r>   21.8408    0.0000 </r>
      </set>
      <set comment="kpoint 100">
       <r>   -0.2449    1.0000 </r>
       <r>   11.5605    0.0000 </r>
       <r>   12.9593    0.0000 </r>
       <r>   16.3701    0.0000 </r>
       <r>   20.0525    0.0000 </r>
       <r>   21.7808    0.0000 </r>
      </set>
      <set comment="kpoint 101">
       <r>   -0.5283    1.0000 </r>
       <r>   11.9342    0.0000 </r>
       <r>   13.3115    0.0000 </r>
       <r>   16.9302    0.0000 </r>
       <r>   19.9910    0.0000 </r>
       <r>   21.7316    0.0000 </r>
      </set>
      <set comment="kpoint 102">
       <r>   -0.7977    1.0000 </r>
       <r>   12.3215    0.0000 </r>
       <r>   13.6731    0.0000 </r>
       <r>   17.5001    0.0000 </r>
       <r>   19.9421    0.0000 </r>
       <r>   21.6934    0.0000 </r>
      </set>
      <set comment="kpoint 103">
       <r>   -1.0531    1.0000 </r>
       <r>   12.7222    0.0000 </r>
       <r>   14.0435    0.0000 </r>
       <r>   18.0789    0.0000 </r>
       <r>   19.9059    0.0000 </r>
       <r>   21.6665    0.0000 </r>
      </set>
      <set comment="kpoint 104">
       <r>   -1.2943    1.0000 </r>
       <r>   13.1362    0.0000 </r>
       <r>   14.4223    0.0000 </r>
       <r>   18.6652    0.0000 </r>
       <r>   19.8820    0.0000 </r>
       <r>   21.6514    0.0000 </r>
      </set>
      <set comment="kpoint 105">
       <r>   -1.5212    1.0000 </r>
       <r>   13.5634    0.0000 </r>
       <r>   14.8090    0.0000 </r>
       <r>   19.2569    0.0000 </r>
       <r>   19.8704    0.0000 </r>
       <r>   21.6497    0.0000 </r>
      </set>
      <set comment="kpoint 106">
       <r>   -1.7338    1.0000 </r>
       <r>   14.0036    0.0000 </r>
       <r>   15.2031    0.0000 </r>
       <r>   19.8495    0.0000 </r>
       <r>   19.8707    0.0000 </r>
       <r>   21.6645    0.0000 </r>
      </set>
      <set comment="kpoint 107">
       <r>   -1.9322    1.0000 </r>
       <r>   14.4533    0.0000 </r>
       <r>   15.6024    0.0000 </r>
       <r>   19.8802    0.0000 </r>
       <r>   20.4285    0.0000 </r>
       <r>   21.7057    0.0000 </r>
      </set>
      <set comment="kpoint 108">
       <r>   -2.1161    1.0000 </r>
       <r>   14.9185    0.0000 </r>
       <r>   16.0091    0.0000 </r>
       <r>   19.9031    0.0000 </r>
       <r>   20.9627    0.0000 </r>
       <r>   21.8091    0.0000 </r>
      </set>
      <set comment="kpoint 109">
       <r>   -2.2853    1.0000 </r>
       <r>   15.3966    0.0000 </r>
       <r>   16.4235    0.0000 </r>
       <r>   19.9473    0.0000 </r>
       <r>   21.3384    0.0000 </r>
       <r>   22.0888    0.0000 </r>
      </set>
      <set comment="kpoint 110">
       <r>   -2.4402    1.0000 </r>
       <r>   15.8837    0.0000 </r>
       <r>   16.8381    0.0000 </r>
       <r>   19.9903    0.0000 </r>
       <r>   21.5061    0.0000 </r>
       <r>   22.5800    0.0000 </r>
      </set>
      <set comment="kpoint 111">
       <r>   -2.5804    1.0000 </r>
       <r>   16.3831    0.0000 </r>
       <r>   17.2577    0.0000 </r>
       <r>   20.0430    0.0000 </r>
       <r>   21.5882    0.0000 </r>
       <r>   23.1630    0.0000 </r>
      </set>
      <set comment="kpoint 112">
       <r>   -2.7060    1.0000 </r>
       <r>   16.8904    0.0000 </r>
       <r>   17.6776    0.0000 </r>
       <r>   20.1033    0.0000 </r>
       <r>   21.6454    0.0000 </r>
       <r>   23.7706    0.0000 </r>
      </set>
      <set comment="kpoint 113">
       <r>   -2.8169    1.0000 </r>
       <r>   17.4076    0.0000 </r>
       <r>   18.1000    0.0000 </r>
       <r>   20.1700    0.0000 </r>
       <r>   21.6936    0.0000 </r>
       <r>   23.6911    0.0000 </r>
      </set>
      <set comment="kpoint 114">
       <r>   -2.9130    1.0000 </r>
       <r>   17.9309    0.0000 </r>
       <r>   18.5214    0.0000 </r>
       <r>   20.2408    0.0000 </r>
       <r>   21.7370    0.0000 </r>
       <r>   23.4102    0.0000 </r>
      </set>
      <set comment="kpoint 115">
       <r>   -2.9944    1.0000 </r>
       <r>   18.4570    0.0000 </r>
       <r>   18.9394    0.0000 </r>
       <r>   20.3129    0.0000 </r>
       <r>   21.7762    0.0000 </r>
       <r>   23.1322    0.0000 </r>
      </set>
      <set comment="kpoint 116">
       <r>   -3.0610    1.0000 </r>
       <r>   18.9811    0.0000 </r>
       <r>   19.3504    0.0000 </r>
       <r>   20.3833    0.0000 </r>
       <r>   21.8106    0.0000 </r>
       <r>   22.8565    0.0000 </r>
      </set>
      <set comment="kpoint 117">
       <r>   -3.1128    1.0000 </r>
       <r>   19.5006    0.0000 </r>
       <r>   19.7520    0.0000 </r>
       <r>   20.4473    0.0000 </r>
       <r>   21.8393    0.0000 </r>
       <r>   22.5749    0.0000 </r>
      </set>
      <set comment="kpoint 118">
       <r>   -3.1498    1.0000 </r>
       <r>   19.9790    0.0000 </r>
       <r>   20.1198    0.0000 </r>
       <r>   20.4980    0.0000 </r>
       <r>   21.8611    0.0000 </r>
       <r>   22.2834    0.0000 </r>
      </set>
      <set comment="kpoint 119">
       <r>   -3.1721    1.0000 </r>
       <r>   20.3705    0.0000 </r>
       <r>   20.4159    0.0000 </r>
       <r>   20.5310    0.0000 </r>
       <r>   21.8742    0.0000 </r>
       <r>   22.0031    0.0000 </r>
      </set>
      <set comment="kpoint 120">
       <r>   -3.1795    1.0000 </r>
       <r>   20.5425    0.0000 </r>
       <r>   20.5425    0.0000 </r>
       <r>   20.5425    0.0000 </r>
       <r>   21.8786    0.0000 </r>
       <r>   21.8787    0.0000 </r>
      </set>
      <set comment="kpoint 121">
       <r>   -3.1795    1.0000 </r>
       <r>   20.5425    0.0000 </r>
       <r>   20.5425    0.0000 </r>
       <r>   20.5425    0.0000 </r>
       <r>   21.8786    0.0000 </r>
       <r>   21.8787    0.0000 </r>
      </set>
      <set comment="kpoint 122">
       <r>   -3.1735    1.0000 </r>
       <r>   20.4403    0.0000 </r>
       <r>   20.4403    0.0000 </r>
       <r>   20.4921    0.0000 </r>
       <r>   21.8640    0.0000 </r>
       <r>   21.9897    0.0000 </r>
      </set>
      <set comment="kpoint 123">
       <r>   -3.1558    1.0000 </r>
       <r>   20.1980    0.0000 </r>
       <r>   20.1981    0.0000 </r>
       <r>   20.3497    0.0000 </r>
       <r>   21.8205    0.0000 </r>
       <r>   22.2584    0.0000 </r>
      </set>
      <set comment="kpoint 124">
       <r>   -3.1261    1.0000 </r>
       <r>   19.8980    0.0000 </r>
       <r>   19.8980    0.0000 </r>
       <r>   20.1364    0.0000 </r>
       <r>   21.7494    0.0000 </r>
       <r>   22.6023    0.0000 </r>
      </set>
      <set comment="kpoint 125">
       <r>   -3.0847    1.0000 </r>
       <r>   19.5760    0.0000 </r>
       <r>   19.5760    0.0000 </r>
       <r>   19.8745    0.0000 </r>
       <r>   21.6519    0.0000 </r>
       <r>   22.9823    0.0000 </r>
      </set>
[...]
        <r>  0.0113  0.2051  0.0000 </r>
       </set>
       <set comment="band 4">
        <r>  0.0000  0.0000  0.0000 </r>
       </set>
       <set comment="band 5">
        <r>  0.0000  0.5298  0.0000 </r>
       </set>
       <set comment="band 6">
        <r>  0.0001  0.3579  0.0000 </r>
       </set>
      </set>
      <set comment="kpoint 287">
       <set comment="band 1">
        <r>  0.2686  0.0051  0.0000 </r>
       </set>
       <set comment="band 2">
        <r>  0.0000  0.1384  0.0000 </r>
       </set>
       <set comment="band 3">
        <r>  0.0174  0.2201  0.0000 </r>
       </set>
       <set comment="band 4">
        <r>  0.0000  0.0000  0.0000 </r>
       </set>
       <set comment="band 5">
        <r>  0.0000  0.5365  0.0000 </r>
       </set>
       <set comment="band 6">
        <r>  0.0000  0.3443  0.0000 </r>
       </set>
      </set>
      <set comment="kpoint 288">
       <set comment="band 1">
        <r>  0.2668  0.0069  0.0000 </r>
       </set>
       <set comment="band 2">
        <r>  0.0000  0.1434  0.0000 </r>
       </set>
       <set comment="band 3">
        <r>  0.0240  0.2287  0.0000 </r>
       </set>
       <set comment="band 4">
        <r>  0.0000  0.0000  0.0000 </r>
       </set>
       <set comment="band 5">
        <r>  0.0000  0.5437  0.0000 </r>
       </set>
       <set comment="band 6">
        <r>  0.0000  0.3328  0.0000 </r>
       </set>
      </set>
      <set comment="kpoint 289">
       <set comment="band 1">
        <r>  0.2648  0.0090  0.0000 </r>
       </set>
       <set comment="band 2">
        <r>  0.0000  0.1477  0.0000 </r>
       </set>
       <set comment="band 3">
        <r>  0.0312  0.2335  0.0000 </r>
       </set>
       <set comment="band 4">
        <r>  0.0000  0.0000  0.0000 </r>
       </set>
       <set comment="band 5">
        <r>  0.0000  0.5534  0.0000 </r>
       </set>
       <set comment="band 6">
        <r>  0.0000  0.3237  0.0000 </r>
       </set>
      </set>
      <set comment="kpoint 290">
       <set comment="band 1">
        <r>  0.2625  0.0113  0.0000 </r>
       </set>
       <set comment="band 2">
        <r>  0.0000  0.1516  0.0000 </r>
       </set>
       <set comment="band 3">
        <r>  0.0389  0.2354  0.0000 </r>
       </set>
       <set comment="band 4">
        <r>  0.0000  0.0000  0.0000 </r>
       </set>
       <set comment="band 5">
        <r>  0.0000  0.5659  0.0000 </r>
       </set>
       <set comment="band 6">
        <r>  0.0000  0.3163  0.0000 </r>
       </set>
      </set>
      <set comment="kpoint 291">
       <set comment="band 1">
        <r>  0.2605  0.0140  0.0000 </r>
       </set>
       <set comment="band 2">
        <r>  0.0000  0.1545  0.0000 </r>
       </set>
       <set comment="band 3">
        <r>  0.0480  0.2324  0.0000 </r>
       </set>
       <set comment="band 4">
        <r>  0.0000  0.0000  0.0000 </r>
       </set>
       <set comment="band 5">
        <r>  0.0000  0.5786  0.0000 </r>
       </set>
       <set comment="band 6">
        <r>  0.0000  0.3107  0.0000 </r>
       </set>
      </set>
      <set comment="kpoint 292">
       <set comment="band 1">
        <r>  0.2577  0.0168  0.0000 </r>
       </set>
       <set comment="band 2">
        <r>  0.0000  0.1581  0.0000 </r>
       </set>
       <set comment="band 3">
        <r>  0.0565  0.2305  0.0000 </r>
       </set>
       <set comment="band 4">
        <r>  0.0000  0.0000  0.0000 </r>
       </set>
       <set comment="band 5">
        <r>  0.0000  0.5801  0.0000 </r>
       </set>
       <set comment="band 6">
        <r>  0.0000  0.2646  0.0000 </r>
       </set>
      </set>
      <set comment="kpoint 293">
       <set comment="band 1">
        <r>  0.2545  0.0199  0.0000 </r>
       </set>
       <set comment="band 2">
        <r>  0.0000  0.1609  0.0000 </r>
       </set>
       <set comment="band 3">
        <r>  0.0649  0.2268  0.0000 </r>
       </set>
       <set comment="band 4">
        <r>  0.0000  0.0000  0.0000 </r>
       </set>
       <set comment="band 5">
        <r>  0.0000  0.5450  0.0000 </r>
       </set>
       <set comment="band 6">
        <r>  0.0000  0.0416  0.0000 </r>
       </set>
      </set>
      <set comment="kpoint 294">
       <set comment="band 1">
        <r>  0.2512  0.0232  0.0000 </r>
       </set>
       <set comment="band 2">
        <r>  0.0000  0.1645  0.0000 </r>
       </set>
       <set comment="band 3">
        <r>  0.0737  0.2222  0.0000 </r>
       </set>
       <set comment="band 4">
        <r>  0.0000  0.0000  0.0000 </r>
       </set>
       <set comment="band 5">
        <r>  0.0000  0.4720  0.0000 </r>
       </set>
       <set comment="band 6">
        <r>  0.0000  0.1166  0.0000 </r>
       </set>
      </set>
      <set comment="kpoint 295">
       <set comment="band 1">
        <r>  0.2479  0.0268  0.0000 </r>
       </set>
       <set comment="band 2">
        <r>  0.0000  0.1668  0.0000 </r>
       </set>
       <set comment="band 3">
        <r>  0.0830  0.2162  0.0000 </r>
       </set>
       <set comment="band 4">
        <r>  0.0000  0.4019  0.0000 </r>
       </set>
       <set comment="band 5">
        <r>  0.0000  0.0000  0.0000 </r>
       </set>
       <set comment="band 6">
        <r>  0.0000  0.1883  0.0000 </r>
       </set>
      </set>
      <set comment="kpoint 296">
       <set comment="band 1">
        <r>  0.2441  0.0306  0.0000 </r>
       </set>
       <set comment="band 2">
        <r>  0.0000  0.1704  0.0000 </r>
       </set>
       <set comment="band 3">
        <r>  0.0920  0.2099  0.0000 </r>
       </set>
       <set comment="band 4">
        <r>  0.0000  0.3541  0.0000 </r>
       </set>
       <set comment="band 5">
        <r>  0.0000  0.0000  0.0000 </r>
       </set>
       <set comment="band 6">
        <r>  0.0345  0.1419  0.0000 </r>
       </set>
      </set>
      <set comment="kpoint 297">
       <set comment="band 1">
        <r>  0.2401  0.0345  0.0000 </r>
       </set>
       <set comment="band 2">
        <r>  0.0000  0.1740  0.0000 </r>
       </set>
       <set comment="band 3">
        <r>  0.1010  0.2031  0.0000 </r>
       </set>
       <set comment="band 4">
        <r>  0.0000  0.3245  0.0000 </r>
       </set>
       <set comment="band 5">
        <r>  0.0000  0.0000  0.0000 </r>
       </set>
       <set comment="band 6">
        <r>  0.0417  0.1393  0.0000 </r>
       </set>
      </set>
      <set comment="kpoint 298">
       <set comment="band 1">
        <r>  0.2358  0.0387  0.0000 </r>
       </set>
       <set comment="band 2">
        <r>  0.0000  0.1775  0.0000 </r>
       </set>
       <set comment="band 3">
        <r>  0.1100  0.1957  0.0000 </r>
       </set>
       <set comment="band 4">
        <r>  0.0000  0.3065  0.0000 </r>
       </set>
       <set comment="band 5">
        <r>  0.0000  0.0000  0.0000 </r>
       </set>
       <set comment="band 6">
        <r>  0.0448  0.1338  0.0000 </r>
       </set>
      </set>
      <set comment="kpoint 299">
       <set comment="band 1">
        <r>  0.2313  0.0430  0.0000 </r>
       </set>
       <set comment="band 2">
        <r>  0.0000  0.1811  0.0000 </r>
       </set>
       <set comment="band 3">
        <r>  0.1189  0.1879  0.0000 </r>
       </set>
       <set comment="band 4">
        <r>  0.0000  0.2957  0.0000 </r>
       </set>
       <set comment="band 5">
        <r>  0.0508  0.1294  0.0000 </r>
       </set>
       <set comment="band 6">
        <r>  0.0000  0.0000  0.0000 </r>
       </set>
      </set>
      <set comment="kpoint 300">
       <set comment="band 1">
        <r>  0.2266  0.0475  0.0000 </r>
       </set>
       <set comment="band 2">
        <r>  0.0000  0.1846  0.0000 </r>
       </set>
       <set comment="band 3">
        <r>  0.1278  0.1798  0.0000 </r>
       </set>
       <set comment="band 4">
        <r>  0.0000  0.2894  0.0000 </r>
       </set>
       <set comment="band 5">
        <r>  0.0571  0.1246  0.0000 </r>
       </set>
       <set comment="band 6">
        <r>  0.0000  0.0000  0.0000 </r>
       </set>
      </set>
      <set comment="kpoint 301">
       <set comment="band 1">
        <r>  0.2215  0.0522  0.0000 </r>
       </set>
       <set comment="band 2">
        <r>  0.0000  0.1881  0.0000 </r>
       </set>
       <set comment="band 3">
        <r>  0.1365  0.1713  0.0000 </r>
       </set>
       <set comment="band 4">
        <r>  0.0000  0.2862  0.0000 </r>
       </set>
       <set comment="band 5">
        <r>  0.0638  0.1194  0.0000 </r>
       </set>
       <set comment="band 6">
        <r>  0.0000  0.0000  0.0000 </r>
       </set>
      </set>
      <set comment="kpoint 302">
       <set comment="band 1">
        <r>  0.2163  0.0571  0.0000 </r>
       </set>
       <set comment="band 2">
        <r>  0.0000  0.1915  0.0000 </r>
       </set>
       <set comment="band 3">
        <r>  0.1453  0.1628  0.0000 </r>
       </set>
       <set comment="band 4">
        <r>  0.0000  0.2849  0.0000 </r>
       </set>
       <set comment="band 5">
        <r>  0.0705  0.1136  0.0000 </r>
       </set>
       <set comment="band 6">
        <r>  0.0000  0.0000  0.0000 </r>
       </set>
      </set>
      <set comment="kpoint 303">
       <set comment="band 1">
        <r>  0.2108  0.0621  0.0000 </r>
       </set>
       <set comment="band 2">
        <r>  0.0000  0.1949  0.0000 </r>
       </set>
       <set comment="band 3">
        <r>  0.1539  0.1542  0.0000 </r>
       </set>
       <set comment="band 4">
        <r>  0.0000  0.2850  0.0000 </r>
       </set>
       <set comment="band 5">
        <r>  0.0774  0.1074  0.0000 </r>
       </set>
       <set comment="band 6">
        <r>  0.0000  0.0000  0.0000 </r>
       </set>
      </set>
      <set comment="kpoint 304">
       <set comment="band 1">
        <r>  0.2052  0.0672  0.0000 </r>
       </set>
       <set comment="band 2">
        <r>  0.0000  0.1983  0.0000 </r>
       </set>
       <set comment="band 3">
        <r>  0.1625  0.1456  0.0000 </r>
       </set>
       <set comment="band 4">
        <r>  0.0000  0.2862  0.0000 </r>
       </set>
       <set comment="band 5">
        <r>  0.0842  0.1008  0.0000 </r>
       </set>
       <set comment="band 6">
        <r>  0.0000  0.0000  0.0000 </r>
       </set>
      </set>
      <set comment="kpoint 305">
       <set comment="band 1">
        <r>  0.1994  0.0725  0.0000 </r>
       </set>
       <set comment="band 2">
        <r>  0.0000  0.2012  0.0000 </r>
       </set>
       <set comment="band 3">
        <r>  0.1703  0.1373  0.0000 </r>
       </set>
       <set comment="band 4">
        <r>  0.0000  0.2853  0.0000 </r>
       </set>
       <set comment="band 5">
        <r>  0.0921  0.0932  0.0000 </r>
       </set>
       <set comment="band 6">
        <r>  0.0000  0.0000  0.0000 </r>
       </set>
      </set>
      <set comment="kpoint 306">
       <set comment="band 1">
        <r>  0.1938  0.0784  0.0000 </r>
       </set>
       <set comment="band 2">
        <r>  0.0000  0.2044  0.0000 </r>
       </set>
       <set comment="band 3">
        <r>  0.1789  0.1282  0.0000 </r>
       </set>
       <set comment="band 4">
        <r>  0.0000  0.2875  0.0000 </r>
       </set>
       <set comment="band 5">
        <r>  0.0990  0.0861  0.0000 </r>
       </set>
       <set comment="band 6">
        <r>  0.0000  0.0001  0.0000 </r>
       </set>
      </set>
      <set comment="kpoint 307">
       <set comment="band 1">
        <r>  0.1874  0.0839  0.0000 </r>
       </set>
       <set comment="band 2">
        <r>  0.0000  0.2076  0.0000 </r>
       </set>
       <set comment="band 3">
        <r>  0.1871  0.1196  0.0000 </r>
       </set>
       <set comment="band 4">
        <r>  0.0000  0.2903  0.0000 </r>
       </set>
       <set comment="band 5">
        <r>  0.1056  0.0789  0.0000 </r>
       </set>
       <set comment="band 6">
        <r>  0.0000  0.0001  0.0000 </r>
       </set>
      </set>
      <set comment="kpoint 308">
       <set comment="band 1">
        <r>  0.1807  0.0895  0.0000 </r>
       </set>
       <set comment="band 2">
        <r>  0.0000  0.2107  0.0000 </r>
       </set>
       <set comment="band 3">
        <r>  0.1951  0.1110  0.0000 </r>
       </set>
       <set comment="band 4">
        <r>  0.0000  0.2934  0.0000 </r>
       </set>
       <set comment="band 5">
        <r>  0.1121  0.0717  0.0000 </r>
       </set>
       <set comment="band 6">
        <r>  0.0000  0.0003  0.0000 </r>
       </set>
      </set>
      <set comment="kpoint 309">
       <set comment="band 1">
        <r>  0.1738  0.0952  0.0000 </r>
       </set>
       <set comment="band 2">
        <r>  0.0000  0.2137  0.0000 </r>
       </set>
       <set comment="band 3">
        <r>  0.2030  0.1025  0.0000 </r>
       </set>
       <set comment="band 4">
        <r>  0.0000  0.2967  0.0000 </r>
       </set>
       <set comment="band 5">
        <r>  0.1183  0.0645  0.0000 </r>
       </set>
       <set comment="band 6">
        <r>  0.0000  0.0004  0.0000 </r>
       </set>
      </set>
      <set comment="kpoint 310">
       <set comment="band 1">
        <r>  0.1671  0.1016  0.0000 </r>
       </set>
       <set comment="band 2">
        <r>  0.0000  0.2166  0.0000 </r>
       </set>
       <set comment="band 3">
        <r>  0.2111  0.0939  0.0000 </r>
       </set>
       <set comment="band 4">
        <r>  0.0000  0.3001  0.0000 </r>
       </set>
       <set comment="band 5">
        <r>  0.1242  0.0574  0.0000 </r>
       </set>
       <set comment="band 6">
        <r>  0.0000  0.0038  0.0000 </r>
       </set>
      </set>
      <set comment="kpoint 311">
       <set comment="band 1">
        <r>  0.1596  0.1075  0.0000 </r>
       </set>
       <set comment="band 2">
        <r>  0.0000  0.2194  0.0000 </r>
       </set>
       <set comment="band 3">
        <r>  0.2188  0.0856  0.0000 </r>
       </set>
       <set comment="band 4">
        <r>  0.0000  0.3035  0.0000 </r>
       </set>
       <set comment="band 5">
        <r>  0.1299  0.0504  0.0000 </r>
       </set>
       <set comment="band 6">
        <r>  0.0000  0.0021  0.0000 </r>
       </set>
      </set>
      <set comment="kpoint 312">
       <set comment="band 1">
        <r>  0.1512  0.1142  0.0000 </r>
       </set>
       <set comment="band 2">
        <r>  0.0000  0.2220  0.0000 </r>
       </set>
       <set comment="band 3">
        <r>  0.2267  0.0776  0.0000 </r>
       </set>
       <set comment="band 4">
        <r>  0.0000  0.3064  0.0000 </r>
       </set>
       <set comment="band 5">
        <r>  0.1361  0.0441  0.0000 </r>
       </set>
       <set comment="band 6">
        <r>  0.0000  0.0049  0.0000 </r>
       </set>
      </set>
      <set comment="kpoint 313">
       <set comment="band 1">
        <r>  0.1428  0.1204  0.0000 </r>
       </set>
       <set comment="band 2">
        <r>  0.0000  0.2246  0.0000 </r>
       </set>
       <set comment="band 3">
        <r>  0.2345  0.0696  0.0000 </r>
       </set>
       <set comment="band 4">
        <r>  0.0000  0.3099  0.0000 </r>
       </set>
       <set comment="band 5">
        <r>  0.1412  0.0374  0.0000 </r>
       </set>
       <set comment="band 6">
        <r>  0.0000  0.0015  0.0000 </r>
       </set>
      </set>
      <set comment="kpoint 314">
       <set comment="band 1">
        <r>  0.1339  0.1268  0.0000 </r>
       </set>
       <set comment="band 2">
        <r>  0.0000  0.2272  0.0000 </r>
       </set>
       <set comment="band 3">
        <r>  0.2425  0.0616  0.0000 </r>
       </set>
       <set comment="band 4">
        <r>  0.0000  0.3133  0.0000 </r>
       </set>
       <set comment="band 5">
        <r>  0.1459  0.0310  0.0000 </r>
       </set>
       <set comment="band 6">
        <r>  0.0000  0.0235  0.0000 </r>
       </set>
      </set>
      <set comment="kpoint 315">
       <set comment="band 1">
        <r>  0.1243  0.1333  0.0000 </r>
       </set>
       <set comment="band 2">
        <r>  0.0000  0.2296  0.0000 </r>
       </set>
       <set comment="band 3">
        <r>  0.2507  0.0537  0.0000 </r>
       </set>
       <set comment="band 4">
        <r>  0.0000  0.3166  0.0000 </r>
       </set>
       <set comment="band 5">
        <r>  0.1502  0.0250  0.0000 </r>
       </set>
       <set comment="band 6">
        <r>  0.0045  0.2022  0.0000 </r>
       </set>
      </set>
      <set comment="kpoint 316">
       <set comment="band 1">
        <r>  0.1138  0.1412  0.0000 </r>
       </set>
       <set comment="band 2">
        <r>  0.0000  0.2312  0.0000 </r>
       </set>
       <set comment="band 3">
        <r>  0.2593  0.0458  0.0000 </r>
       </set>
       <set comment="band 4">
        <r>  0.0000  0.3182  0.0000 </r>
       </set>
       <set comment="band 5">
        <r>  0.1548  0.0197  0.0000 </r>
       </set>
       <set comment="band 6">
        <r>  0.0100  0.1985  0.0000 </r>
       </set>
      </set>
      <set comment="kpoint 317">
       <set comment="band 1">
        <r>  0.1016  0.1486  0.0000 </r>
       </set>
       <set comment="band 2">
        <r>  0.0000  0.2334  0.0000 </r>
       </set>
       <set comment="band 3">
        <r>  0.2692  0.0376  0.0000 </r>
       </set>
       <set comment="band 4">
        <r>  0.0000  0.3214  0.0000 </r>
       </set>
       <set comment="band 5">
        <r>  0.1580  0.0145  0.0000 </r>
       </set>
       <set comment="band 6">
        <r>  0.0170  0.1987  0.0000 </r>
       </set>
      </set>
      <set comment="kpoint 318">
       <set comment="band 1">
        <r>  0.0867  0.1568  0.0000 </r>
       </set>
       <set comment="band 2">
        <r>  0.0000  0.2355  0.0000 </r>
       </set>
       <set comment="band 3">
        <r>  0.2814  0.0288  0.0000 </r>
       </set>
       <set comment="band 4">
        <r>  0.0000  0.3244  0.0000 </r>
       </set>
       <set comment="band 5">
        <r>  0.1606  0.0099  0.0000 </r>
       </set>
       <set comment="band 6">
        <r>  0.0250  0.1981  0.0000 </r>
       </set>
      </set>
      <set comment="kpoint 319">
       <set comment="band 1">
        <r>  0.0665  0.1665  0.0000 </r>
       </set>
       <set comment="band 2">
        <r>  0.0000  0.2375  0.0000 </r>
       </set>
       <set comment="band 3">
        <r>  0.2983  0.0186  0.0000 </r>
       </set>
       <set comment="band 4">
        <r>  0.0000  0.3273  0.0000 </r>
       </set>
       <set comment="band 5">
        <r>  0.1624  0.0060  0.0000 </r>
       </set>
       <set comment="band 6">
        <r>  0.0340  0.1968  0.0000 </r>
       </set>
      </set>
      <set comment="kpoint 320">
       <set comment="band 1">
        <r>  0.0000  0.2393  0.0000 </r>
       </set>
       <set comment="band 2">
        <r>  0.0344  0.1791  0.0000 </r>
       </set>
       <set comment="band 3">
        <r>  0.3266  0.0059  0.0000 </r>
       </set>
       <set comment="band 4">
        <r>  0.0000  0.3300  0.0000 </r>
       </set>
       <set comment="band 5">
        <r>  0.1634  0.0029  0.0000 </r>
       </set>
       <set comment="band 6">
        <r>  0.0440  0.1946  0.0000 </r>
       </set>
      </set>
     </set>
    </set>
   </array>
  </projected>
 </calculation>
 <structure name="finalpos" >
  <crystal>
   <varray name="basis" >
    <v>       0.00000000       2.02500000       2.02500000 </v>
    <v>       2.02500000       0.00000000       2.02500000 </v>
    <v>       2.02500000       2.02500000       0.00000000 </v>
   </varray>
   <i name="volume">     16.60753125 </i>
   <varray name="rec_basis" >
    <v>      -0.24691358       0.24691358       0.24691358 </v>
    <v>       0.24691358      -0.24691358       0.24691358 </v>
    <v>       0.24691358       0.24691358      -0.24691358 </v>
   </varray>
  </crystal>
  <varray name="positions" >
   <v>       0.00000000       0.00000000       0.00000000 </v>
  </varray>
 </structure>
</modeling>
