a= 3.90
 running on    2 total cores
 distrk:  each k-point on    2 cores,    1 groups
 distr:  one band on    1 cores,    2 groups
 using from now: INCAR     
 vasp.5.3.2 13Sep12 (build Jun 30 2016 14:08:18) complex                        
  
 POSCAR found type information on POSCAR  Al
 POSCAR found :  1 types and       4 ions
 LDA part: xc-table for Ceperly-Alder, standard interpolation
 POSCAR, INCAR and KPOINTS ok, starting setup
 WARNING: small aliasing (wrap around) errors must be expected
 FFT: planning ...
 WAVECAR not read
 entering main loop
       N       E                     dE             d eps       ncg     rms          rms(c)
DAV:   1     0.206389355563E+01    0.20639E+01   -0.28926E+03   718   0.492E+02
DAV:   2    -0.141446050621E+02   -0.16208E+02   -0.15303E+02   928   0.749E+01
DAV:   3    -0.146178453567E+02   -0.47324E+00   -0.45503E+00   898   0.112E+01
DAV:   4    -0.146204814466E+02   -0.26361E-02   -0.26270E-02   830   0.818E-01
DAV:   5    -0.146204978528E+02   -0.16406E-04   -0.16406E-04   842   0.568E-02    0.192E+00
DAV:   6    -0.145701214735E+02    0.50376E-01   -0.45223E-03   788   0.501E-01    0.120E+00
DAV:   7    -0.145407182948E+02    0.29403E-01   -0.12578E-02   726   0.947E-01    0.539E-02
DAV:   8    -0.145407349802E+02   -0.16685E-04   -0.11696E-04   924   0.908E-02    0.200E-02
DAV:   9    -0.145407362746E+02   -0.12943E-05   -0.94676E-07   536   0.854E-03    0.180E-03
DAV:  10    -0.145407363242E+02   -0.49599E-07   -0.54540E-08   438   0.211E-03
   1 F= -.14540736E+02 E0= -.14540852E+02  d E =0.348494E-03
 writing wavefunctions

 ----------------------------------------------------------------------------- 
|                                                                             |
|           W    W    AA    RRRRR   N    N  II  N    N   GGGG   !!!           |
|           W    W   A  A   R    R  NN   N  II  NN   N  G    G  !!!           |
|           W    W  A    A  R    R  N N  N  II  N N  N  G       !!!           |
|           W WW W  AAAAAA  RRRRR   N  N N  II  N  N N  G  GGG   !            |
|           WW  WW  A    A  R   R   N   NN  II  N   NN  G    G                |
|           W    W  A    A  R    R  N    N  II  N    N   GGGG   !!!           |
|                                                                             |
|      The partial DOS and the PROCAR file are not evaluated for NPAR/=1      |
|      please rerun with NPAR=1                                               |
|                                                                             |
 ----------------------------------------------------------------------------- 

a= 3.95
 running on    2 total cores
 distrk:  each k-point on    2 cores,    1 groups
 distr:  one band on    1 cores,    2 groups
 using from now: INCAR     
 vasp.5.3.2 13Sep12 (build Jun 30 2016 14:08:18) complex                        
  
 POSCAR found type information on POSCAR  Al
 POSCAR found :  1 types and       4 ions
 LDA part: xc-table for Ceperly-Alder, standard interpolation
 found WAVECAR, reading the header
 WAVECAR: different cutoff or change in lattice found
 POSCAR, INCAR and KPOINTS ok, starting setup
 WARNING: small aliasing (wrap around) errors must be expected
 FFT: planning ...
 reading WAVECAR
 the WAVECAR file was read sucessfully
 initial charge from wavefunction
 entering main loop
       N       E                     dE             d eps       ncg     rms          rms(c)
DAV:   1    -0.146669712660E+02   -0.14667E+02   -0.31132E-01   774   0.495E+00    0.228E-01
DAV:   2    -0.146663510848E+02    0.62018E-03   -0.16495E-03   804   0.312E-01    0.142E-01
DAV:   3    -0.146659382923E+02    0.41279E-03   -0.43081E-04   722   0.165E-01    0.616E-03
DAV:   4    -0.146659344897E+02    0.38026E-05   -0.25349E-06   760   0.159E-02    0.370E-03
DAV:   5    -0.146659302351E+02    0.42546E-05   -0.18478E-07   376   0.410E-03    0.159E-04
DAV:   6    -0.146659303894E+02   -0.15428E-06   -0.17396E-08   356   0.117E-03
   1 F= -.14665930E+02 E0= -.14665862E+02  d E =-.204490E-03
 writing wavefunctions

 ----------------------------------------------------------------------------- 
|                                                                             |
|           W    W    AA    RRRRR   N    N  II  N    N   GGGG   !!!           |
|           W    W   A  A   R    R  NN   N  II  NN   N  G    G  !!!           |
|           W    W  A    A  R    R  N N  N  II  N N  N  G       !!!           |
|           W WW W  AAAAAA  RRRRR   N  N N  II  N  N N  G  GGG   !            |
|           WW  WW  A    A  R   R   N   NN  II  N   NN  G    G                |
|           W    W  A    A  R    R  N    N  II  N    N   GGGG   !!!           |
|                                                                             |
|      The partial DOS and the PROCAR file are not evaluated for NPAR/=1      |
|      please rerun with NPAR=1                                               |
|                                                                             |
 ----------------------------------------------------------------------------- 

a= 4.0
 running on    2 total cores
 distrk:  each k-point on    2 cores,    1 groups
 distr:  one band on    1 cores,    2 groups
 using from now: INCAR     
 vasp.5.3.2 13Sep12 (build Jun 30 2016 14:08:18) complex                        
  
 POSCAR found type information on POSCAR  Al
 POSCAR found :  1 types and       4 ions
 LDA part: xc-table for Ceperly-Alder, standard interpolation
 found WAVECAR, reading the header
 WAVECAR: different cutoff or change in lattice found
 POSCAR, INCAR and KPOINTS ok, starting setup
 WARNING: small aliasing (wrap around) errors must be expected
 FFT: planning ...
 reading WAVECAR
 the WAVECAR file was read sucessfully
 initial charge from wavefunction
 entering main loop
       N       E                     dE             d eps       ncg     rms          rms(c)
DAV:   1    -0.147371584558E+02   -0.14737E+02   -0.30923E-01   774   0.479E+00    0.234E-01
DAV:   2    -0.147364926996E+02    0.66576E-03   -0.17632E-03   808   0.322E-01    0.146E-01
DAV:   3    -0.147360491787E+02    0.44352E-03   -0.50067E-04   708   0.178E-01    0.659E-03
DAV:   4    -0.147360451953E+02    0.39834E-05   -0.30696E-06   794   0.171E-02    0.398E-03
DAV:   5    -0.147360407294E+02    0.44659E-05   -0.23387E-07   372   0.463E-03    0.221E-04
DAV:   6    -0.147360409362E+02   -0.20679E-06   -0.20163E-08   356   0.124E-03
   1 F= -.14736041E+02 E0= -.14735817E+02  d E =-.672407E-03
 writing wavefunctions

 ----------------------------------------------------------------------------- 
|                                                                             |
|           W    W    AA    RRRRR   N    N  II  N    N   GGGG   !!!           |
|           W    W   A  A   R    R  NN   N  II  NN   N  G    G  !!!           |
|           W    W  A    A  R    R  N N  N  II  N N  N  G       !!!           |
|           W WW W  AAAAAA  RRRRR   N  N N  II  N  N N  G  GGG   !            |
|           WW  WW  A    A  R   R   N   NN  II  N   NN  G    G                |
|           W    W  A    A  R    R  N    N  II  N    N   GGGG   !!!           |
|                                                                             |
|      The partial DOS and the PROCAR file are not evaluated for NPAR/=1      |
|      please rerun with NPAR=1                                               |
|                                                                             |
 ----------------------------------------------------------------------------- 

a= 4.05
 running on    2 total cores
 distrk:  each k-point on    2 cores,    1 groups
 distr:  one band on    1 cores,    2 groups
 using from now: INCAR     
 vasp.5.3.2 13Sep12 (build Jun 30 2016 14:08:18) complex                        
  
 POSCAR found type information on POSCAR  Al
 POSCAR found :  1 types and       4 ions
 LDA part: xc-table for Ceperly-Alder, standard interpolation
 found WAVECAR, reading the header
 WAVECAR: different cutoff or change in lattice found
 POSCAR, INCAR and KPOINTS ok, starting setup
 WARNING: small aliasing (wrap around) errors must be expected
 FFT: planning ...
 reading WAVECAR
 the WAVECAR file was read sucessfully
 initial charge from wavefunction
 entering main loop
       N       E                     dE             d eps       ncg     rms          rms(c)
DAV:   1    -0.147598177679E+02   -0.14760E+02   -0.31029E-01   784   0.468E+00    0.240E-01
DAV:   2    -0.147590654871E+02    0.75228E-03   -0.19069E-03   792   0.337E-01    0.149E-01
DAV:   3    -0.147585600382E+02    0.50545E-03   -0.58617E-04   732   0.190E-01    0.689E-03
DAV:   4    -0.147585559243E+02    0.41139E-05   -0.34056E-06   794   0.175E-02    0.419E-03
DAV:   5    -0.147585512844E+02    0.46400E-05   -0.28740E-07   372   0.509E-03    0.255E-04
DAV:   6    -0.147585515204E+02   -0.23604E-06   -0.22726E-08   358   0.133E-03
   1 F= -.14758552E+02 E0= -.14758214E+02  d E =-.101382E-02
 writing wavefunctions

 ----------------------------------------------------------------------------- 
|                                                                             |
|           W    W    AA    RRRRR   N    N  II  N    N   GGGG   !!!           |
|           W    W   A  A   R    R  NN   N  II  NN   N  G    G  !!!           |
|           W    W  A    A  R    R  N N  N  II  N N  N  G       !!!           |
|           W WW W  AAAAAA  RRRRR   N  N N  II  N  N N  G  GGG   !            |
|           WW  WW  A    A  R   R   N   NN  II  N   NN  G    G                |
|           W    W  A    A  R    R  N    N  II  N    N   GGGG   !!!           |
|                                                                             |
|      The partial DOS and the PROCAR file are not evaluated for NPAR/=1      |
|      please rerun with NPAR=1                                               |
|                                                                             |
 ----------------------------------------------------------------------------- 

a= 4.1
 running on    2 total cores
 distrk:  each k-point on    2 cores,    1 groups
 distr:  one band on    1 cores,    2 groups
 using from now: INCAR     
 vasp.5.3.2 13Sep12 (build Jun 30 2016 14:08:18) complex                        
  
 POSCAR found type information on POSCAR  Al
 POSCAR found :  1 types and       4 ions
 LDA part: xc-table for Ceperly-Alder, standard interpolation
 found WAVECAR, reading the header
 WAVECAR: different cutoff or change in lattice found
 POSCAR, INCAR and KPOINTS ok, starting setup
 WARNING: small aliasing (wrap around) errors must be expected
 FFT: planning ...
 reading WAVECAR
 the WAVECAR file was read sucessfully
 initial charge from wavefunction
 entering main loop
       N       E                     dE             d eps       ncg     rms          rms(c)
DAV:   1    -0.147414199671E+02   -0.14741E+02   -0.31343E-01   776   0.460E+00    0.246E-01
DAV:   2    -0.147405352203E+02    0.88475E-03   -0.20511E-03   794   0.350E-01    0.152E-01
DAV:   3    -0.147399409627E+02    0.59426E-03   -0.68243E-04   744   0.198E-01    0.707E-03
DAV:   4    -0.147399367101E+02    0.42526E-05   -0.36550E-06   794   0.177E-02    0.430E-03
DAV:   5    -0.147399318598E+02    0.48503E-05   -0.31391E-07   376   0.520E-03    0.265E-04
DAV:   6    -0.147399321058E+02   -0.24602E-06   -0.24771E-08   364   0.140E-03
   1 F= -.14739932E+02 E0= -.14739521E+02  d E =-.123337E-02
 writing wavefunctions

 ----------------------------------------------------------------------------- 
|                                                                             |
|           W    W    AA    RRRRR   N    N  II  N    N   GGGG   !!!           |
|           W    W   A  A   R    R  NN   N  II  NN   N  G    G  !!!           |
|           W    W  A    A  R    R  N N  N  II  N N  N  G       !!!           |
|           W WW W  AAAAAA  RRRRR   N  N N  II  N  N N  G  GGG   !            |
|           WW  WW  A    A  R   R   N   NN  II  N   NN  G    G                |
|           W    W  A    A  R    R  N    N  II  N    N   GGGG   !!!           |
|                                                                             |
|      The partial DOS and the PROCAR file are not evaluated for NPAR/=1      |
|      please rerun with NPAR=1                                               |
|                                                                             |
 ----------------------------------------------------------------------------- 

a= 4.15
 running on    2 total cores
 distrk:  each k-point on    2 cores,    1 groups
 distr:  one band on    1 cores,    2 groups
 using from now: INCAR     
 vasp.5.3.2 13Sep12 (build Jun 30 2016 14:08:18) complex                        
  
 POSCAR found type information on POSCAR  Al
 POSCAR found :  1 types and       4 ions
 LDA part: xc-table for Ceperly-Alder, standard interpolation
 found WAVECAR, reading the header
 WAVECAR: different cutoff or change in lattice found
 POSCAR, INCAR and KPOINTS ok, starting setup
 WARNING: small aliasing (wrap around) errors must be expected
 FFT: planning ...
 reading WAVECAR
 the WAVECAR file was read sucessfully
 initial charge from wavefunction
 entering main loop
       N       E                     dE             d eps       ncg     rms          rms(c)
DAV:   1    -0.146872199048E+02   -0.14687E+02   -0.31407E-01   776   0.443E+00    0.250E-01
DAV:   2    -0.146861720641E+02    0.10478E-02   -0.22254E-03   798   0.362E-01    0.154E-01
DAV:   3    -0.146854743498E+02    0.69771E-03   -0.79050E-04   734   0.202E-01    0.715E-03
DAV:   4    -0.146854698794E+02    0.44704E-05   -0.40484E-06   814   0.184E-02    0.431E-03
DAV:   5    -0.146854648383E+02    0.50411E-05   -0.30005E-07   366   0.494E-03    0.262E-04
DAV:   6    -0.146854650835E+02   -0.24523E-06   -0.25328E-08   362   0.143E-03
   1 F= -.14685465E+02 E0= -.14685108E+02  d E =-.107011E-02
 writing wavefunctions

 ----------------------------------------------------------------------------- 
|                                                                             |
|           W    W    AA    RRRRR   N    N  II  N    N   GGGG   !!!           |
|           W    W   A  A   R    R  NN   N  II  NN   N  G    G  !!!           |
|           W    W  A    A  R    R  N N  N  II  N N  N  G       !!!           |
|           W WW W  AAAAAA  RRRRR   N  N N  II  N  N N  G  GGG   !            |
|           WW  WW  A    A  R   R   N   NN  II  N   NN  G    G                |
|           W    W  A    A  R    R  N    N  II  N    N   GGGG   !!!           |
|                                                                             |
|      The partial DOS and the PROCAR file are not evaluated for NPAR/=1      |
|      please rerun with NPAR=1                                               |
|                                                                             |
 ----------------------------------------------------------------------------- 

a= 4.2
 running on    2 total cores
 distrk:  each k-point on    2 cores,    1 groups
 distr:  one band on    1 cores,    2 groups
 using from now: INCAR     
 vasp.5.3.2 13Sep12 (build Jun 30 2016 14:08:18) complex                        
  
 POSCAR found type information on POSCAR  Al
 POSCAR found :  1 types and       4 ions
 LDA part: xc-table for Ceperly-Alder, standard interpolation
 found WAVECAR, reading the header
 WAVECAR: different cutoff or change in lattice found
 POSCAR, INCAR and KPOINTS ok, starting setup
 WARNING: small aliasing (wrap around) errors must be expected
 FFT: planning ...
 reading WAVECAR
 the WAVECAR file was read sucessfully
 initial charge from wavefunction
 entering main loop
       N       E                     dE             d eps       ncg     rms          rms(c)
DAV:   1    -0.146023286454E+02   -0.14602E+02   -0.31712E-01   774   0.441E+00    0.254E-01
DAV:   2    -0.146011090294E+02    0.12196E-02   -0.23870E-03   802   0.372E-01    0.156E-01
DAV:   3    -0.146003088597E+02    0.80017E-03   -0.89999E-04   736   0.205E-01    0.716E-03
DAV:   4    -0.146003042164E+02    0.46433E-05   -0.43894E-06   800   0.191E-02    0.426E-03
DAV:   5    -0.146002990577E+02    0.51587E-05   -0.26899E-07   370   0.458E-03    0.238E-04
DAV:   6    -0.146002992762E+02   -0.21846E-06   -0.25200E-08   364   0.143E-03
   1 F= -.14600299E+02 E0= -.14600144E+02  d E =-.465618E-03
 writing wavefunctions

 ----------------------------------------------------------------------------- 
|                                                                             |
|           W    W    AA    RRRRR   N    N  II  N    N   GGGG   !!!           |
|           W    W   A  A   R    R  NN   N  II  NN   N  G    G  !!!           |
|           W    W  A    A  R    R  N N  N  II  N N  N  G       !!!           |
|           W WW W  AAAAAA  RRRRR   N  N N  II  N  N N  G  GGG   !            |
|           WW  WW  A    A  R   R   N   NN  II  N   NN  G    G                |
|           W    W  A    A  R    R  N    N  II  N    N   GGGG   !!!           |
|                                                                             |
|      The partial DOS and the PROCAR file are not evaluated for NPAR/=1      |
|      please rerun with NPAR=1                                               |
|                                                                             |
 ----------------------------------------------------------------------------- 


------------------------------------------------------------
Sender: LSF System <lsfadmin@alps4-30>
Subject: Job 400039: <vasp> in cluster <cluster5> Done

Job <vasp> was submitted from host <alps6> by user <s11gyg07> in cluster <cluster5>.
Job was executed on host(s) <2*alps4-30>, in queue <test>, as user <s11gyg07> in cluster <cluster5>.
</home/s11gyg07> was used as the home directory.
</home/s11gyg07/Hands-on-1016/Al/2-e-v> was used as the working directory.
Started at Mon Oct 16 16:01:54 2017
Results reported on Mon Oct 16 16:02:29 2017

Your job looked like:

------------------------------------------------------------
# LSBATCH: User input
#!/bin/sh
#BSUB -a mvapich
#BSUB -n 2 
#BSUB -J vasp
#BSUB -o %J.out
#BSUB -e %J.err
#BSUB -q  test              # depend on -n
#BSUB -R 'span[ptile=48]' # uncomment when multi-nodes
#BSUB -R "ipathavail==0"  # uncomment when multi-nodes

source /pkg/mpi/intel/12/mvapich2-1.8/bin/mpivars.sh

VASP=/home/$USER/bin/vasp_ntu

for a in 3.90 3.95 4.0 4.05 4.1 4.15 4.2
do
echo "a= $a"

cat >POSCAR <<!
Al
$a
        1.0000000000         0.0000000000         0.0000000000
        0.0000000000         1.0000000000         0.0000000000
        0.0000000000         0.0000000000         1.0000000000
   Al
    4
Direct
     0.000000000         0.000000000         0.000000000
     0.000000000         0.500000000         0.500000000
     0.500000000         0.000000000         0.500000000
     0.500000000         0.500000000         0.000000000
!
mpiexec -np ${LSB_DJOB_NUMPROC} ${VASP}

#E=`grep F OSZICAR| awk '{printf $5}'`


E=`grep "energy without entropy" OUTCAR |tail -1|awk '{printf "%12.6f\n",$5}'`
echo $a $E >> ev.dat
done

------------------------------------------------------------

Successfully completed.

Resource usage summary:

    CPU time :                                   63.72 sec.
    Total Requested Memory :                     -
    Delta Memory :                               -
    Max Processes :                              7
    Max Threads :                                8

The output (if any) is above this job summary.



PS:

Read file <400039.err> for stderr output of this job.

