bcc Al                                  
   4.20000000000000     
     1.000000    0.000000    0.000000
     0.000000    1.000000    0.000000
     0.000000    0.000000    1.000000
   Al
     4
Direct
  0.000000  0.000000  0.000000
  0.000000  0.500000  0.500000
  0.500000  0.000000  0.500000
  0.500000  0.500000  0.000000
 
   32   32   32
 -1.1288     -.31747      1.9532      5.1984      8.6762      11.581      13.325      13.756      13.154      11.995    
  10.666      9.4315      8.4232      7.6687      7.1493      6.8435      6.7421      6.8435      7.1493      7.6687    
  8.4232      9.4315      10.666      11.995      13.154      13.756      13.325      11.581      8.6762      5.1984    
  1.9532     -.31747     -.31747     0.47150      2.6727      5.8004      9.1238      11.865      13.470      13.810    
  13.168      12.007      10.692      9.4785      8.4899      7.7507      7.2420      6.9427      6.8435      6.9427    
  7.2420      7.7507      8.4899      9.4785      10.692      12.007      13.168      13.810      13.470      11.865    
  9.1238      5.8004      2.6727     0.47150      1.9532      2.6727      4.6629      7.4438      10.325      12.610    
  13.836      13.937      13.202      12.040      10.774      9.6240      8.6934      7.9992      7.5221      7.2420    
  7.1493      7.2420      7.5221      7.9992      8.6934      9.6240      10.774      12.040      13.202      13.937    
  13.836      12.610      10.325      7.4438      4.6629      2.6727      5.1984      5.8004      7.4438      9.6808    
  11.903      13.538      14.253      14.056      13.229      12.097      10.922      9.8799      9.0447      8.4242    
  7.9992      7.7507      7.6687      7.7507      7.9992      8.4242      9.0447      9.8799      10.922      12.097    
  13.229      14.056      14.253      13.538      11.903      9.6808      7.4438      5.8004      8.6762      9.1238    
  10.325      11.903      13.371      14.311      14.526      14.084      13.224      12.180      11.152      10.264    
  9.5620      9.0447      8.6934      8.4899      8.4232      8.4899      8.6934      9.0447      9.5620      10.264    
  11.152      12.180      13.224      14.084      14.526      14.311      13.371      11.903      10.325      9.1238    
  11.581      11.865      12.610      13.538      14.311      14.668      14.525      13.974      13.176      12.300    
  11.481      10.795      10.264      9.8799      9.6240      9.4785      9.4315      9.4785      9.6240      9.8799    
  10.264      10.795      11.481      12.300      13.176      13.974      14.525      14.668      14.311      13.538    
  12.610      11.865      13.325      13.470      13.836      14.253      14.526      14.525      14.237      13.726    
  13.101      12.474      11.922      11.481      11.152      10.922      10.774      10.692      10.666      10.692    
  10.774      10.922      11.152      11.481      11.922      12.474      13.101      13.726      14.237      14.525    
  14.526      14.253      13.836      13.470      13.756      13.810      13.937      14.056      14.084      13.974    
  13.726      13.388      13.032      12.717      12.474      12.300      12.180      12.097      12.040      12.007    
  11.995      12.007      12.040      12.097      12.180      12.300      12.474      12.717      13.032      13.388    
  13.726      13.974      14.084      14.056      13.937      13.810      13.154      13.168      13.202      13.229    
  13.224      13.176      13.101      13.032      13.004      13.032      13.101      13.176      13.224      13.229    
  13.202      13.168      13.154      13.168      13.202      13.229      13.224      13.176      13.101      13.032    
  13.004      13.032      13.101      13.176      13.224      13.229      13.202      13.168      11.995      12.007    
  12.040      12.097      12.180      12.300      12.474      12.717      13.032      13.388      13.726      13.974    
  14.084      14.056      13.937      13.810      13.756      13.810      13.937      14.056      14.084      13.974    
  13.726      13.388      13.032      12.717      12.474      12.300      12.180      12.097      12.040      12.007    
  10.666      10.692      10.774      10.922      11.152      11.481      11.922      12.474      13.101      13.726    
  14.237      14.525      14.526      14.253      13.836      13.470      13.325      13.470      13.836      14.253    
  14.526      14.525      14.237      13.726      13.101      12.474      11.922      11.481      11.152      10.922    
  10.774      10.692      9.4315      9.4785      9.6240      9.8799      10.264      10.795      11.481      12.300    
  13.176      13.974      14.525      14.668      14.311      13.538      12.610      11.865      11.581      11.865    
  12.610      13.538      14.311      14.668      14.525      13.974      13.176      12.300      11.481      10.795    
  10.264      9.8799      9.6240      9.4785      8.4232      8.4899      8.6934      9.0447      9.5620      10.264    
  11.152      12.180      13.224      14.084      14.526      14.311      13.371      11.903      10.325      9.1238    
  8.6762      9.1238      10.325      11.903      13.371      14.311      14.526      14.084      13.224      12.180    
  11.152      10.264      9.5620      9.0447      8.6934      8.4899      7.6687      7.7507      7.9992      8.4242    
  9.0447      9.8799      10.922      12.097      13.229      14.056      14.253      13.538      11.903      9.6808    
  7.4438      5.8004      5.1984      5.8004      7.4438      9.6808      11.903      13.538      14.253      14.056    
  13.229      12.097      10.922      9.8799      9.0447      8.4242      7.9992      7.7507      7.1493      7.2420    
  7.5221      7.9992      8.6934      9.6240      10.774      12.040      13.202      13.937      13.836      12.610    
  10.325      7.4438      4.6629      2.6727      1.9532      2.6727      4.6629      7.4438      10.325      12.610    
  13.836      13.937      13.202      12.040      10.774      9.6240      8.6934      7.9992      7.5221      7.2420    
  6.8435      6.9427      7.2420      7.7507      8.4899      9.4785      10.692      12.007      13.168      13.810    
  13.470      11.865      9.1238      5.8004      2.6727     0.47150     -.31747     0.47150      2.6727      5.8004    
  9.1238      11.865      13.470      13.810      13.168      12.007      10.692      9.4785      8.4899      7.7507    
  7.2420      6.9427      6.7421      6.8435      7.1493      7.6687      8.4232      9.4315      10.666      11.995    
  13.154      13.756      13.325      11.581      8.6762      5.1984      1.9532     -.31747     -1.1288     -.31747    
  1.9532      5.1984      8.6762      11.581      13.325      13.756      13.154      11.995      10.666      9.4315    
  8.4232      7.6687      7.1493      6.8435      6.8435      6.9427      7.2420      7.7507      8.4899      9.4785    
  10.692      12.007      13.168      13.810      13.470      11.865      9.1238      5.8004      2.6727     0.47150    
 -.31747     0.47150      2.6727      5.8004      9.1238      11.865      13.470      13.810      13.168      12.007    
  10.692      9.4785      8.4899      7.7507      7.2420      6.9427      7.1493      7.2420      7.5221      7.9992    
  8.6934      9.6240      10.774      12.040      13.202      13.937      13.836      12.610      10.325      7.4438    
  4.6629      2.6727      1.9532      2.6727      4.6629      7.4438      10.325      12.610      13.836      13.937    
  13.202      12.040      10.774      9.6240      8.6934      7.9992      7.5221      7.2420      7.6687      7.7507    
  7.9992      8.4242      9.0447      9.8799      10.922      12.097      13.229      14.056      14.253      13.538    
  11.903      9.6808      7.4438      5.8004      5.1984      5.8004      7.4438      9.6808      11.903      13.538    
  14.253      14.056      13.229      12.097      10.922      9.8799      9.0447      8.4242      7.9992      7.7507    
  8.4232      8.4899      8.6934      9.0447      9.5620      10.264      11.152      12.180      13.224      14.084    
  14.526      14.311      13.371      11.903      10.325      9.1238      8.6762      9.1238      10.325      11.903    
  13.371      14.311      14.526      14.084      13.224      12.180      11.152      10.264      9.5620      9.0447    
  8.6934      8.4899      9.4315      9.4785      9.6240      9.8799      10.264      10.795      11.481      12.300    
  13.176      13.974      14.525      14.668      14.311      13.538      12.610      11.865      11.581      11.865    
  12.610      13.538      14.311      14.668      14.525      13.974      13.176      12.300      11.481      10.795    
  10.264      9.8799      9.6240      9.4785      10.666      10.692      10.774      10.922      11.152      11.481    
  11.922      12.474      13.101      13.726      14.237      14.525      14.526      14.253      13.836      13.470    
  13.325      13.470      13.836      14.253      14.526      14.525      14.237      13.726      13.101      12.474    
  11.922      11.481      11.152      10.922      10.774      10.692      11.995      12.007      12.040      12.097    
  12.180      12.300      12.474      12.717      13.032      13.388      13.726      13.974      14.084      14.056    
  13.937      13.810      13.756      13.810      13.937      14.056      14.084      13.974      13.726      13.388    
  13.032      12.717      12.474      12.300      12.180      12.097      12.040      12.007      13.154      13.168    
  13.202      13.229      13.224      13.176      13.101      13.032      13.004      13.032      13.101      13.176    
  13.224      13.229      13.202      13.168      13.154      13.168      13.202      13.229      13.224      13.176    
  13.101      13.032      13.004      13.032      13.101      13.176      13.224      13.229      13.202      13.168    
  13.756      13.810      13.937      14.056      14.084      13.974      13.726      13.388      13.032      12.717    
  12.474      12.300      12.180      12.097      12.040      12.007      11.995      12.007      12.040      12.097    
  12.180      12.300      12.474      12.717      13.032      13.388      13.726      13.974      14.084      14.056    
  13.937      13.810      13.325      13.470      13.836      14.253      14.526      14.525      14.237      13.726    
  13.101      12.474      11.922      11.481      11.152      10.922      10.774      10.692      10.666      10.692    
  10.774      10.922      11.152      11.481      11.922      12.474      13.101      13.726      14.237      14.525    
  14.526      14.253      13.836      13.470      11.581      11.865      12.610      13.538      14.311      14.668    
  14.525      13.974      13.176      12.300      11.481      10.795      10.264      9.8799      9.6240      9.4785    
  9.4315      9.4785      9.6240      9.8799      10.264      10.795      11.481      12.300      13.176      13.974    
  14.525      14.668      14.311      13.538      12.610      11.865      8.6762      9.1238      10.325      11.903    
  13.371      14.311      14.526      14.084      13.224      12.180      11.152      10.264      9.5620      9.0447    
  8.6934      8.4899      8.4232      8.4899      8.6934      9.0447      9.5620      10.264      11.152      12.180    
  13.224      14.084      14.526      14.311      13.371      11.903      10.325      9.1238      5.1984      5.8004    
  7.4438      9.6808      11.903      13.538      14.253      14.056      13.229      12.097      10.922      9.8799    
  9.0447      8.4242      7.9992      7.7507      7.6687      7.7507      7.9992      8.4242      9.0447      9.8799    
  10.922      12.097      13.229      14.056      14.253      13.538      11.903      9.6808      7.4438      5.8004    
  1.9532      2.6727      4.6629      7.4438      10.325      12.610      13.836      13.937      13.202      12.040    
  10.774      9.6240      8.6934      7.9992      7.5221      7.2420      7.1493      7.2420      7.5221      7.9992    
  8.6934      9.6240      10.774      12.040      13.202      13.937      13.836      12.610      10.325      7.4438    
  4.6629      2.6727     -.31747     0.47150      2.6727      5.8004      9.1238      11.865      13.470      13.810    
  13.168      12.007      10.692      9.4785      8.4899      7.7507      7.2420      6.9427      6.8435      6.9427    
  7.2420      7.7507      8.4899      9.4785      10.692      12.007      13.168      13.810      13.470      11.865    
  9.1238      5.8004      2.6727     0.47150     -.31747     0.47150      2.6727      5.8004      9.1238      11.865    
  13.470      13.810      13.168      12.007      10.692      9.4785      8.4899      7.7507      7.2420      6.9427    
  6.8435      6.9427      7.2420      7.7507      8.4899      9.4785      10.692      12.007      13.168      13.810    
  13.470      11.865      9.1238      5.8004      2.6727     0.47150     0.47150      1.2375      3.3683      6.3784    
  9.5500      12.132      13.603      13.856      13.179      12.015      10.716      9.5232      8.5541      7.8301    
  7.3323      7.0397      6.9427      7.0397      7.3323      7.8301      8.5541      9.5232      10.716      12.015    
  13.179      13.856      13.603      12.132      9.5500      6.3784      3.3683      1.2375      2.6727      3.3683    
  5.2866      7.9523      10.691      12.831      13.939      13.966      13.203      12.042      10.791      9.6619    
  8.7504      8.0714      7.6054      7.3323      7.2420      7.3323      7.6054      8.0714      8.7504      9.6619    
  10.791      12.042      13.203      13.966      13.939      12.831      10.691      7.9523      5.2866      3.3683    
  5.8004      6.3784      7.9523      10.083      12.179      13.692      14.313      14.062      13.217      12.089    
  10.930      9.9077      9.0908      8.4852      8.0714      7.8301      7.7507      7.8301      8.0714      8.4852    
  9.0908      9.9077      10.930      12.089      13.217      14.062      14.313      13.692      12.179      10.083    
  7.9523      6.3784      9.1238      9.5500      10.691      12.179      13.546      14.394      14.542      14.067    
  13.197      12.161      11.150      10.280      9.5940      9.0908      8.7504      8.5541      8.4899      8.5541    
  8.7504      9.0908      9.5940      10.280      11.150      12.161      13.197      14.067      14.542      14.394    
  13.546      12.179      10.691      9.5500      11.865      12.132      12.831      13.692      14.394      14.690    
  14.506      13.937      13.138      12.271      11.467      10.796      10.280      9.9077      9.6619      9.5232    
  9.4785      9.5232      9.6619      9.9077      10.280      10.796      11.467      12.271      13.138      13.937    
  14.506      14.690      14.394      13.692      12.831      12.132      13.470      13.603      13.939      14.313    
  14.542      14.506      14.197      13.677      13.053      12.435      11.895      11.467      11.150      10.930    
  10.791      10.716      10.692      10.716      10.791      10.930      11.150      11.467      11.895      12.435    
  13.053      13.677      14.197      14.506      14.542      14.313      13.939      13.603      13.810      13.856    
  13.966      14.062      14.067      13.937      13.677      13.334      12.979      12.670      12.435      12.271    
  12.161      12.089      12.042      12.015      12.007      12.015      12.042      12.089      12.161      12.271    
  12.435      12.670      12.979      13.334      13.677      13.937      14.067      14.062      13.966      13.856    
  13.168      13.179      13.203      13.217      13.197      13.138      13.053      12.979      12.950      12.979    
  13.053      13.138      13.197      13.217      13.203      13.179      13.168      13.179      13.203      13.217    
  13.197      13.138      13.053      12.979      12.950      12.979      13.053      13.138      13.197      13.217    
  13.203      13.179      12.007      12.015      12.042      12.089      12.161      12.271      12.435      12.670    
  12.979      13.334      13.677      13.937      14.067      14.062      13.966      13.856      13.810      13.856    
  13.966      14.062      14.067      13.937      13.677      13.334      12.979      12.670      12.435      12.271    
  12.161      12.089      12.042      12.015      10.692      10.716      10.791      10.930      11.150      11.467    
  11.895      12.435      13.053      13.677      14.197      14.506      14.542      14.313      13.939      13.603    
  13.470      13.603      13.939      14.313      14.542      14.506      14.197      13.677      13.053      12.435    
  11.895      11.467      11.150      10.930      10.791      10.716      9.4785      9.5232      9.6619      9.9077    
  10.280      10.796      11.467      12.271      13.138      13.937      14.506      14.690      14.394      13.692    
  12.831      12.132      11.865      12.132      12.831      13.692      14.394      14.690      14.506      13.937    
  13.138      12.271      11.467      10.796      10.280      9.9077      9.6619      9.5232      8.4899      8.5541    
  8.7504      9.0908      9.5940      10.280      11.150      12.161      13.197      14.067      14.542      14.394    
  13.546      12.179      10.691      9.5500      9.1238      9.5500      10.691      12.179      13.546      14.394    
  14.542      14.067      13.197      12.161      11.150      10.280      9.5940      9.0908      8.7504      8.5541    
  7.7507      7.8301      8.0714      8.4852      9.0908      9.9077      10.930      12.089      13.217      14.062    
  14.313      13.692      12.179      10.083      7.9523      6.3784      5.8004      6.3784      7.9523      10.083    
  12.179      13.692      14.313      14.062      13.217      12.089      10.930      9.9077      9.0908      8.4852    
  8.0714      7.8301      7.2420      7.3323      7.6054      8.0714      8.7504      9.6619      10.791      12.042    
  13.203      13.966      13.939      12.831      10.691      7.9523      5.2866      3.3683      2.6727      3.3683    
  5.2866      7.9523      10.691      12.831      13.939      13.966      13.203      12.042      10.791      9.6619    
  8.7504      8.0714      7.6054      7.3323      6.9427      7.0397      7.3323      7.8301      8.5541      9.5232    
  10.716      12.015      13.179      13.856      13.603      12.132      9.5500      6.3784      3.3683      1.2375    
 0.47150      1.2375      3.3683      6.3784      9.5500      12.132      13.603      13.856      13.179      12.015    
  10.716      9.5232      8.5541      7.8301      7.3323      7.0397      6.8435      6.9427      7.2420      7.7507    
  8.4899      9.4785      10.692      12.007      13.168      13.810      13.470      11.865      9.1238      5.8004    
  2.6727     0.47150     -.31747     0.47150      2.6727      5.8004      9.1238      11.865      13.470      13.810    
  13.168      12.007      10.692      9.4785      8.4899      7.7507      7.2420      6.9427      6.9427      7.0397    
  7.3323      7.8301      8.5541      9.5232      10.716      12.015      13.179      13.856      13.603      12.132    
  9.5500      6.3784      3.3683      1.2375     0.47150      1.2375      3.3683      6.3784      9.5500      12.132    
  13.603      13.856      13.179      12.015      10.716      9.5232      8.5541      7.8301      7.3323      7.0397    
  7.2420      7.3323      7.6054      8.0714      8.7504      9.6619      10.791      12.042      13.203      13.966    
  13.939      12.831      10.691      7.9523      5.2866      3.3683      2.6727      3.3683      5.2866      7.9523    
  10.691      12.831      13.939      13.966      13.203      12.042      10.791      9.6619      8.7504      8.0714    
  7.6054      7.3323      7.7507      7.8301      8.0714      8.4852      9.0908      9.9077      10.930      12.089    
  13.217      14.062      14.313      13.692      12.179      10.083      7.9523      6.3784      5.8004      6.3784    
  7.9523      10.083      12.179      13.692      14.313      14.062      13.217      12.089      10.930      9.9077    
  9.0908      8.4852      8.0714      7.8301      8.4899      8.5541      8.7504      9.0908      9.5940      10.280    
  11.150      12.161      13.197      14.067      14.542      14.394      13.546      12.179      10.691      9.5500    
  9.1238      9.5500      10.691      12.179      13.546      14.394      14.542      14.067      13.197      12.161    
  11.150      10.280      9.5940      9.0908      8.7504      8.5541      9.4785      9.5232      9.6619      9.9077    
  10.280      10.796      11.467      12.271      13.138      13.937      14.506      14.690      14.394      13.692    
  12.831      12.132      11.865      12.132      12.831      13.692      14.394      14.690      14.506      13.937    
  13.138      12.271      11.467      10.796      10.280      9.9077      9.6619      9.5232      10.692      10.716    
  10.791      10.930      11.150      11.467      11.895      12.435      13.053      13.677      14.197      14.506    
  14.542      14.313      13.939      13.603      13.470      13.603      13.939      14.313      14.542      14.506    
  14.197      13.677      13.053      12.435      11.895      11.467      11.150      10.930      10.791      10.716    
  12.007      12.015      12.042      12.089      12.161      12.271      12.435      12.670      12.979      13.334    
  13.677      13.937      14.067      14.062      13.966      13.856      13.810      13.856      13.966      14.062    
  14.067      13.937      13.677      13.334      12.979      12.670      12.435      12.271      12.161      12.089    
  12.042      12.015      13.168      13.179      13.203      13.217      13.197      13.138      13.053      12.979    
  12.950      12.979      13.053      13.138      13.197      13.217      13.203      13.179      13.168      13.179    
  13.203      13.217      13.197      13.138      13.053      12.979      12.950      12.979      13.053      13.138    
  13.197      13.217      13.203      13.179      13.810      13.856      13.966      14.062      14.067      13.937    
  13.677      13.334      12.979      12.670      12.435      12.271      12.161      12.089      12.042      12.015    
  12.007      12.015      12.042      12.089      12.161      12.271      12.435      12.670      12.979      13.334    
  13.677      13.937      14.067      14.062      13.966      13.856      13.470      13.603      13.939      14.313    
  14.542      14.506      14.197      13.677      13.053      12.435      11.895      11.467      11.150      10.930    
  10.791      10.716      10.692      10.716      10.791      10.930      11.150      11.467      11.895      12.435    
  13.053      13.677      14.197      14.506      14.542      14.313      13.939      13.603      11.865      12.132    
  12.831      13.692      14.394      14.690      14.506      13.937      13.138      12.271      11.467      10.796    
  10.280      9.9077      9.6619      9.5232      9.4785      9.5232      9.6619      9.9077      10.280      10.796    
  11.467      12.271      13.138      13.937      14.506      14.690      14.394      13.692      12.831      12.132    
  9.1238      9.5500      10.691      12.179      13.546      14.394      14.542      14.067      13.197      12.161    
  11.150      10.280      9.5940      9.0908      8.7504      8.5541      8.4899      8.5541      8.7504      9.0908    
  9.5940      10.280      11.150      12.161      13.197      14.067      14.542      14.394      13.546      12.179    
  10.691      9.5500      5.8004      6.3784      7.9523      10.083      12.179      13.692      14.313      14.062    
  13.217      12.089      10.930      9.9077      9.0908      8.4852      8.0714      7.8301      7.7507      7.8301    
  8.0714      8.4852      9.0908      9.9077      10.930      12.089      13.217      14.062      14.313      13.692    
  12.179      10.083      7.9523      6.3784      2.6727      3.3683      5.2866      7.9523      10.691      12.831    
  13.939      13.966      13.203      12.042      10.791      9.6619      8.7504      8.0714      7.6054      7.3323    
  7.2420      7.3323      7.6054      8.0714      8.7504      9.6619      10.791      12.042      13.203      13.966    
  13.939      12.831      10.691      7.9523      5.2866      3.3683     0.47150      1.2375      3.3683      6.3784    
  9.5500      12.132      13.603      13.856      13.179      12.015      10.716      9.5232      8.5541      7.8301    
  7.3323      7.0397      6.9427      7.0397      7.3323      7.8301      8.5541      9.5232      10.716      12.015    
  13.179      13.856      13.603      12.132      9.5500      6.3784      3.3683      1.2375      1.9532      2.6727    
  4.6629      7.4438      10.325      12.610      13.836      13.937      13.202      12.040      10.774      9.6240    
  8.6934      7.9992      7.5221      7.2420      7.1493      7.2420      7.5221      7.9992      8.6934      9.6240    
  10.774      12.040      13.202      13.937      13.836      12.610      10.325      7.4438      4.6629      2.6727    
  2.6727      3.3683      5.2866      7.9523      10.691      12.831      13.939      13.966      13.203      12.042    
  10.791      9.6619      8.7504      8.0714      7.6054      7.3323      7.2420      7.3323      7.6054      8.0714    
  8.7504      9.6619      10.791      12.042      13.203      13.966      13.939      12.831      10.691      7.9523    
  5.2866      3.3683      4.6629      5.2866      6.9929      9.3259      11.660      13.400      14.190      14.027    
  13.200      12.049      10.849      9.7815      8.9263      8.2919      7.8584      7.6054      7.5221      7.6054    
  7.8584      8.2919      8.9263      9.7815      10.849      12.049      13.200      14.027      14.190      13.400    
  11.660      9.3259      6.9929      5.2866      7.4438      7.9523      9.3259      11.154      12.898      14.079    
  14.449      14.060      13.177      12.069      10.962      9.9986      9.2352      8.6731      8.2919      8.0714    
  7.9992      8.0714      8.2919      8.6731      9.2352      9.9986      10.962      12.069      13.177      14.060    
  14.449      14.079      12.898      11.154      9.3259      7.9523      10.325      10.691      11.660      12.898    
  13.987      14.587      14.561      14.003      13.119      12.111      11.150      10.334      9.6978      9.2352    
  8.9263      8.7504      8.6934      8.7504      8.9263      9.2352      9.6978      10.334      11.150      12.111    
  13.119      14.003      14.561      14.587      13.987      12.898      11.660      10.691      12.610      12.831    
  13.400      14.079      14.587      14.721      14.435      13.824      13.026      12.191      11.433      10.809    
  10.334      9.9986      9.7815      9.6619      9.6240      9.6619      9.7815      9.9986      10.334      10.809    
  11.433      12.191      13.026      13.824      14.435      14.721      14.587      14.079      13.400      12.831    
  13.836      13.939      14.190      14.449      14.561      14.435      14.071      13.532      12.918      12.328    
  11.824      11.433      11.150      10.962      10.849      10.791      10.774      10.791      10.849      10.962    
  11.150      11.433      11.824      12.328      12.918      13.532      14.071      14.435      14.561      14.449    
  14.190      13.939      13.937      13.966      14.027      14.060      14.003      13.824      13.532      13.179    
  12.830      12.539      12.328      12.191      12.111      12.069      12.049      12.042      12.040      12.042    
  12.049      12.069      12.111      12.191      12.328      12.539      12.830      13.179      13.532      13.824    
  14.003      14.060      14.027      13.966      13.202      13.203      13.200      13.177      13.119      13.026    
  12.918      12.830      12.796      12.830      12.918      13.026      13.119      13.177      13.200      13.203    
  13.202      13.203      13.200      13.177      13.119      13.026      12.918      12.830      12.796      12.830    
  12.918      13.026      13.119      13.177      13.200      13.203      12.040      12.042      12.049      12.069    
  12.111      12.191      12.328      12.539      12.830      13.179      13.532      13.824      14.003      14.060    
  14.027      13.966      13.937      13.966      14.027      14.060      14.003      13.824      13.532      13.179    
  12.830      12.539      12.328      12.191      12.111      12.069      12.049      12.042      10.774      10.791    
  10.849      10.962      11.150      11.433      11.824      12.328      12.918      13.532      14.071      14.435    
  14.561      14.449      14.190      13.939      13.836      13.939      14.190      14.449      14.561      14.435    
  14.071      13.532      12.918      12.328      11.824      11.433      11.150      10.962      10.849      10.791    
  9.6240      9.6619      9.7815      9.9986      10.334      10.809      11.433      12.191      13.026      13.824    
  14.435      14.721      14.587      14.079      13.400      12.831      12.610      12.831      13.400      14.079    
  14.587      14.721      14.435      13.824      13.026      12.191      11.433      10.809      10.334      9.9986    
  9.7815      9.6619      8.6934      8.7504      8.9263      9.2352      9.6978      10.334      11.150      12.111    
  13.119      14.003      14.561      14.587      13.987      12.898      11.660      10.691      10.325      10.691    