bcc Al                                  
   4.20000000000000     
     1.000000    0.000000    0.000000
     0.000000    1.000000    0.000000
     0.000000    0.000000    1.000000
   Al
     4
Direct
  0.000000  0.000000  0.000000
  0.000000  0.500000  0.500000
  0.500000  0.000000  0.500000
  0.500000  0.500000  0.000000
 
   32   32   32
 -.11287768316E+01 -.31747209191E+00 0.19531885152E+01 0.51984300005E+01 0.86761691161E+01
 0.11580570819E+02 0.13325160913E+02 0.13756212062E+02 0.13153713717E+02 0.11995438176E+02
 0.10665942965E+02 0.94314804946E+01 0.84231895838E+01 0.76687021251E+01 0.71493159848E+01
 0.68435214591E+01 0.67420838573E+01 0.68435214591E+01 0.71493159848E+01 0.76687021251E+01
 0.84231895838E+01 0.94314804946E+01 0.10665942965E+02 0.11995438176E+02 0.13153713717E+02
 0.13756212062E+02 0.13325160913E+02 0.11580570819E+02 0.86761691161E+01 0.51984300005E+01
 0.19531885152E+01 -.31747209191E+00 -.31747209191E+00 0.47149560170E+00 0.26727467507E+01
 0.58003916707E+01 0.91238246741E+01 0.11864647281E+02 0.13469880752E+02 0.13809624557E+02
 0.13168344900E+02 0.12006658753E+02 0.10691934185E+02 0.94785335139E+01 0.84898854179E+01
 0.77506601727E+01 0.72419948425E+01 0.69427275329E+01 0.68435214591E+01 0.69427275329E+01
 0.72419948425E+01 0.77506601727E+01 0.84898854179E+01 0.94785335139E+01 0.10691934185E+02
 0.12006658753E+02 0.13168344900E+02 0.13809624557E+02 0.13469880752E+02 0.11864647281E+02
 0.91238246741E+01 0.58003916707E+01 0.26727467507E+01 0.47149560170E+00 0.19531885152E+01
 0.26727467507E+01 0.46629323609E+01 0.74437827021E+01 0.10325411574E+02 0.12609956379E+02
 0.13836431549E+02 0.13936693649E+02 0.13201924415E+02 0.12040263516E+02 0.10773813060E+02
 0.96239650553E+01 0.86934195804E+01 0.79991753311E+01 0.75220949011E+01 0.72419948425E+01
 0.71493159848E+01 0.72419948425E+01 0.75220949011E+01 0.79991753311E+01 0.86934195804E+01
 0.96239650553E+01 0.10773813060E+02 0.12040263516E+02 0.13201924415E+02 0.13936693649E+02
 0.13836431549E+02 0.12609956379E+02 0.10325411574E+02 0.74437827021E+01 0.46629323609E+01
 0.26727467507E+01 0.51984300005E+01 0.58003916707E+01 0.74437827021E+01 0.96808066810E+01
 0.11902870818E+02 0.13538135633E+02 0.14253467013E+02 0.14056270138E+02 0.13229088856E+02
 0.12096836312E+02 0.10922259067E+02 0.98799131512E+01 0.90447386521E+01 0.84242155076E+01
 0.79991753311E+01 0.77506601727E+01 0.76687021251E+01 0.77506601727E+01 0.79991753311E+01
 0.84242155076E+01 0.90447386521E+01 0.98799131512E+01 0.10922259067E+02 0.12096836312E+02
 0.13229088856E+02 0.14056270138E+02 0.14253467013E+02 0.13538135633E+02 0.11902870818E+02
 0.96808066810E+01 0.74437827021E+01 0.58003916707E+01 0.86761691161E+01 0.91238246741E+01
 0.10325411574E+02 0.11902870818E+02 0.13370665154E+02 0.14311271701E+02 0.14525869845E+02
 0.14084463849E+02 0.13223863573E+02 0.12180051604E+02 0.11152457572E+02 0.10264203350E+02
 0.95620285587E+01 0.90447386521E+01 0.86934195804E+01 0.84898854179E+01 0.84231895838E+01
 0.84898854179E+01 0.86934195804E+01 0.90447386521E+01 0.95620285587E+01 0.10264203350E+02
 0.11152457572E+02 0.12180051604E+02 0.13223863573E+02 0.14084463849E+02 0.14525869845E+02
 0.14311271701E+02 0.13370665154E+02 0.11902870818E+02 0.10325411574E+02 0.91238246741E+01
 0.11580570819E+02 0.11864647281E+02 0.12609956379E+02 0.13538135633E+02 0.14311271701E+02
 0.14668491213E+02 0.14524734540E+02 0.13974202552E+02 0.13176154309E+02 0.12299980754E+02
 0.11481354177E+02 0.10795346687E+02 0.10264203350E+02 0.98799131512E+01 0.96239650553E+01
 0.94785335139E+01 0.94314804946E+01 0.94785335139E+01 0.96239650553E+01 0.98799131512E+01
 0.10264203350E+02 0.10795346687E+02 0.11481354177E+02 0.12299980754E+02 0.13176154309E+02
 0.13974202552E+02 0.14524734540E+02 0.14668491213E+02 0.14311271701E+02 0.13538135633E+02
 0.12609956379E+02 0.11864647281E+02 0.13325160913E+02 0.13469880752E+02 0.13836431549E+02
 0.14253467013E+02 0.14525869845E+02 0.14524734540E+02 0.14236637767E+02 0.13725858971E+02
 0.13100753346E+02 0.12473527351E+02 0.11922330413E+02 0.11481354177E+02 0.11152457572E+02
 0.10922259067E+02 0.10773813060E+02 0.10691934185E+02 0.10665942965E+02 0.10691934185E+02
 0.10773813060E+02 0.10922259067E+02 0.11152457572E+02 0.11481354177E+02 0.11922330413E+02
 0.12473527351E+02 0.13100753346E+02 0.13725858971E+02 0.14236637767E+02 0.14524734540E+02
 0.14525869845E+02 0.14253467013E+02 0.13836431549E+02 0.13469880752E+02 0.13756212062E+02
 0.13809624557E+02 0.13936693649E+02 0.14056270138E+02 0.14084463849E+02 0.13974202552E+02
 0.13725858971E+02 0.13388057278E+02 0.13031767457E+02 0.12717163403E+02 0.12473527351E+02
 0.12299980754E+02 0.12180051604E+02 0.12096836312E+02 0.12040263516E+02 0.12006658753E+02
 0.11995438176E+02 0.12006658753E+02 0.12040263516E+02 0.12096836312E+02 0.12180051604E+02
 0.12299980754E+02 0.12473527351E+02 0.12717163403E+02 0.13031767457E+02 0.13388057278E+02
 0.13725858971E+02 0.13974202552E+02 0.14084463849E+02 0.14056270138E+02 0.13936693649E+02
 0.13809624557E+02 0.13153713717E+02 0.13168344900E+02 0.13201924415E+02 0.13229088856E+02
 0.13223863573E+02 0.13176154309E+02 0.13100753346E+02 0.13031767457E+02 0.13003914658E+02
 0.13031767457E+02 0.13100753346E+02 0.13176154309E+02 0.13223863573E+02 0.13229088856E+02
 0.13201924415E+02 0.13168344900E+02 0.13153713717E+02 0.13168344900E+02 0.13201924415E+02
 0.13229088856E+02 0.13223863573E+02 0.13176154309E+02 0.13100753346E+02 0.13031767457E+02
 0.13003914658E+02 0.13031767457E+02 0.13100753346E+02 0.13176154309E+02 0.13223863573E+02
 0.13229088856E+02 0.13201924415E+02 0.13168344900E+02 0.11995438176E+02 0.12006658753E+02
 0.12040263516E+02 0.12096836312E+02 0.12180051604E+02 0.12299980754E+02 0.12473527351E+02
 0.12717163403E+02 0.13031767457E+02 0.13388057278E+02 0.13725858971E+02 0.13974202552E+02
 0.14084463849E+02 0.14056270138E+02 0.13936693649E+02 0.13809624557E+02 0.13756212062E+02
 0.13809624557E+02 0.13936693649E+02 0.14056270138E+02 0.14084463849E+02 0.13974202552E+02
 0.13725858971E+02 0.13388057278E+02 0.13031767457E+02 0.12717163403E+02 0.12473527351E+02
 0.12299980754E+02 0.12180051604E+02 0.12096836312E+02 0.12040263516E+02 0.12006658753E+02
 0.10665942965E+02 0.10691934185E+02 0.10773813060E+02 0.10922259067E+02 0.11152457572E+02
 0.11481354177E+02 0.11922330413E+02 0.12473527351E+02 0.13100753346E+02 0.13725858971E+02
 0.14236637767E+02 0.14524734540E+02 0.14525869845E+02 0.14253467013E+02 0.13836431549E+02
 0.13469880752E+02 0.13325160913E+02 0.13469880752E+02 0.13836431549E+02 0.14253467013E+02
 0.14525869845E+02 0.14524734540E+02 0.14236637767E+02 0.13725858971E+02 0.13100753346E+02
 0.12473527351E+02 0.11922330413E+02 0.11481354177E+02 0.11152457572E+02 0.10922259067E+02
 0.10773813060E+02 0.10691934185E+02 0.94314804946E+01 0.94785335139E+01 0.96239650553E+01
 0.98799131512E+01 0.10264203350E+02 0.10795346687E+02 0.11481354177E+02 0.12299980754E+02
 0.13176154309E+02 0.13974202552E+02 0.14524734540E+02 0.14668491213E+02 0.14311271701E+02
 0.13538135633E+02 0.12609956379E+02 0.11864647281E+02 0.11580570819E+02 0.11864647281E+02
 0.12609956379E+02 0.13538135633E+02 0.14311271701E+02 0.14668491213E+02 0.14524734540E+02
 0.13974202552E+02 0.13176154309E+02 0.12299980754E+02 0.11481354177E+02 0.10795346687E+02
 0.10264203350E+02 0.98799131512E+01 0.96239650553E+01 0.94785335139E+01 0.84231895838E+01
 0.84898854179E+01 0.86934195804E+01 0.90447386521E+01 0.95620285587E+01 0.10264203350E+02
 0.11152457572E+02 0.12180051604E+02 0.13223863573E+02 0.14084463849E+02 0.14525869845E+02
 0.14311271701E+02 0.13370665154E+02 0.11902870818E+02 0.10325411574E+02 0.91238246741E+01
 0.86761691161E+01 0.91238246741E+01 0.10325411574E+02 0.11902870818E+02 0.13370665154E+02
 0.14311271701E+02 0.14525869845E+02 0.14084463849E+02 0.13223863573E+02 0.12180051604E+02
 0.11152457572E+02 0.10264203350E+02 0.95620285587E+01 0.90447386521E+01 0.86934195804E+01
 0.84898854179E+01 0.76687021251E+01 0.77506601727E+01 0.79991753311E+01 0.84242155076E+01
 0.90447386521E+01 0.98799131512E+01 0.10922259067E+02 0.12096836312E+02 0.13229088856E+02
 0.14056270138E+02 0.14253467013E+02 0.13538135633E+02 0.11902870818E+02 0.96808066810E+01
 0.74437827021E+01 0.58003916707E+01 0.51984300005E+01 0.58003916707E+01 0.74437827021E+01
 0.96808066810E+01 0.11902870818E+02 0.13538135633E+02 0.14253467013E+02 0.14056270138E+02
 0.13229088856E+02 0.12096836312E+02 0.10922259067E+02 0.98799131512E+01 0.90447386521E+01
 0.84242155076E+01 0.79991753311E+01 0.77506601727E+01 0.71493159848E+01 0.72419948425E+01
 0.75220949011E+01 0.79991753311E+01 0.86934195804E+01 0.96239650553E+01 0.10773813060E+02
 0.12040263516E+02 0.13201924415E+02 0.13936693649E+02 0.13836431549E+02 0.12609956379E+02
 0.10325411574E+02 0.74437827021E+01 0.46629323609E+01 0.26727467507E+01 0.19531885152E+01
 0.26727467507E+01 0.46629323609E+01 0.74437827021E+01 0.10325411574E+02 0.12609956379E+02
 0.13836431549E+02 0.13936693649E+02 0.13201924415E+02 0.12040263516E+02 0.10773813060E+02
 0.96239650553E+01 0.86934195804E+01 0.79991753311E+01 0.75220949011E+01 0.72419948425E+01
 0.68435214591E+01 0.69427275329E+01 0.72419948425E+01 0.77506601727E+01 0.84898854179E+01
 0.94785335139E+01 0.10691934185E+02 0.12006658753E+02 0.13168344900E+02 0.13809624557E+02
 0.13469880752E+02 0.11864647281E+02 0.91238246741E+01 0.58003916707E+01 0.26727467507E+01
 0.47149560170E+00 -.31747209191E+00 0.47149560170E+00 0.26727467507E+01 0.58003916707E+01
 0.91238246741E+01 0.11864647281E+02 0.13469880752E+02 0.13809624557E+02 0.13168344900E+02
 0.12006658753E+02 0.10691934185E+02 0.94785335139E+01 0.84898854179E+01 0.77506601727E+01
 0.72419948425E+01 0.69427275329E+01 0.67420838573E+01 0.68435214591E+01 0.71493159848E+01
 0.76687021251E+01 0.84231895838E+01 0.94314804946E+01 0.10665942965E+02 0.11995438176E+02
 0.13153713717E+02 0.13756212062E+02 0.13325160913E+02 0.11580570819E+02 0.86761691161E+01
 0.51984300005E+01 0.19531885152E+01 -.31747209191E+00 -.11287768316E+01 -.31747209191E+00
 0.19531885152E+01 0.51984300005E+01 0.86761691161E+01 0.11580570819E+02 0.13325160913E+02
 0.13756212062E+02 0.13153713717E+02 0.11995438176E+02 0.10665942965E+02 0.94314804946E+01
 0.84231895838E+01 0.76687021251E+01 0.71493159848E+01 0.68435214591E+01 0.68435214591E+01
 0.69427275329E+01 0.72419948425E+01 0.77506601727E+01 0.84898854179E+01 0.94785335139E+01
 0.10691934185E+02 0.12006658753E+02 0.13168344900E+02 0.13809624557E+02 0.13469880752E+02
 0.11864647281E+02 0.91238246741E+01 0.58003916707E+01 0.26727467507E+01 0.47149560170E+00
 -.31747209191E+00 0.47149560170E+00 0.26727467507E+01 0.58003916707E+01 0.91238246741E+01
 0.11864647281E+02 0.13469880752E+02 0.13809624557E+02 0.13168344900E+02 0.12006658753E+02
 0.10691934185E+02 0.94785335139E+01 0.84898854179E+01 0.77506601727E+01 0.72419948425E+01
 0.69427275329E+01 0.71493159848E+01 0.72419948425E+01 0.75220949011E+01 0.79991753311E+01
 0.86934195804E+01 0.96239650553E+01 0.10773813060E+02 0.12040263516E+02 0.13201924415E+02
 0.13936693649E+02 0.13836431549E+02 0.12609956379E+02 0.10325411574E+02 0.74437827021E+01
 0.46629323609E+01 0.26727467507E+01 0.19531885152E+01 0.26727467507E+01 0.46629323609E+01
 0.74437827021E+01 0.10325411574E+02 0.12609956379E+02 0.13836431549E+02 0.13936693649E+02
 0.13201924415E+02 0.12040263516E+02 0.10773813060E+02 0.96239650553E+01 0.86934195804E+01
 0.79991753311E+01 0.75220949011E+01 0.72419948425E+01 0.76687021251E+01 0.77506601727E+01
 0.79991753311E+01 0.84242155076E+01 0.90447386521E+01 0.98799131512E+01 0.10922259067E+02
 0.12096836312E+02 0.13229088856E+02 0.14056270138E+02 0.14253467013E+02 0.13538135633E+02
 0.11902870818E+02 0.96808066810E+01 0.74437827021E+01 0.58003916707E+01 0.51984300005E+01
 0.58003916707E+01 0.74437827021E+01 0.96808066810E+01 0.11902870818E+02 0.13538135633E+02
 0.14253467013E+02 0.14056270138E+02 0.13229088856E+02 0.12096836312E+02 0.10922259067E+02
 0.98799131512E+01 0.90447386521E+01 0.84242155076E+01 0.79991753311E+01 0.77506601727E+01
 0.84231895838E+01 0.84898854179E+01 0.86934195804E+01 0.90447386521E+01 0.95620285587E+01
 0.10264203350E+02 0.11152457572E+02 0.12180051604E+02 0.13223863573E+02 0.14084463849E+02
 0.14525869845E+02 0.14311271701E+02 0.13370665154E+02 0.11902870818E+02 0.10325411574E+02
 0.91238246741E+01 0.86761691161E+01 0.91238246741E+01 0.10325411574E+02 0.11902870818E+02
 0.13370665154E+02 0.14311271701E+02 0.14525869845E+02 0.14084463849E+02 0.13223863573E+02
 0.12180051604E+02 0.11152457572E+02 0.10264203350E+02 0.95620285587E+01 0.90447386521E+01
 0.86934195804E+01 0.84898854179E+01 0.94314804946E+01 0.94785335139E+01 0.96239650553E+01
 0.98799131512E+01 0.10264203350E+02 0.10795346687E+02 0.11481354177E+02 0.12299980754E+02
 0.13176154309E+02 0.13974202552E+02 0.14524734540E+02 0.14668491213E+02 0.14311271701E+02
 0.13538135633E+02 0.12609956379E+02 0.11864647281E+02 0.11580570819E+02 0.11864647281E+02
 0.12609956379E+02 0.13538135633E+02 0.14311271701E+02 0.14668491213E+02 0.14524734540E+02
 0.13974202552E+02 0.13176154309E+02 0.12299980754E+02 0.11481354177E+02 0.10795346687E+02
 0.10264203350E+02 0.98799131512E+01 0.96239650553E+01 0.94785335139E+01 0.10665942965E+02
 0.10691934185E+02 0.10773813060E+02 0.10922259067E+02 0.11152457572E+02 0.11481354177E+02
 0.11922330413E+02 0.12473527351E+02 0.13100753346E+02 0.13725858971E+02 0.14236637767E+02
 0.14524734540E+02 0.14525869845E+02 0.14253467013E+02 0.13836431549E+02 0.13469880752E+02
 0.13325160913E+02 0.13469880752E+02 0.13836431549E+02 0.14253467013E+02 0.14525869845E+02
 0.14524734540E+02 0.14236637767E+02 0.13725858971E+02 0.13100753346E+02 0.12473527351E+02
 0.11922330413E+02 0.11481354177E+02 0.11152457572E+02 0.10922259067E+02 0.10773813060E+02
 0.10691934185E+02 0.11995438176E+02 0.12006658753E+02 0.12040263516E+02 0.12096836312E+02
 0.12180051604E+02 0.12299980754E+02 0.12473527351E+02 0.12717163403E+02 0.13031767457E+02
 0.13388057278E+02 0.13725858971E+02 0.13974202552E+02 0.14084463849E+02 0.14056270138E+02
 0.13936693649E+02 0.13809624557E+02 0.13756212062E+02 0.13809624557E+02 0.13936693649E+02
 0.14056270138E+02 0.14084463849E+02 0.13974202552E+02 0.13725858971E+02 0.13388057278E+02
 0.13031767457E+02 0.12717163403E+02 0.12473527351E+02 0.12299980754E+02 0.12180051604E+02
 0.12096836312E+02 0.12040263516E+02 0.12006658753E+02 0.13153713717E+02 0.13168344900E+02
 0.13201924415E+02 0.13229088856E+02 0.13223863573E+02 0.13176154309E+02 0.13100753346E+02
 0.13031767457E+02 0.13003914658E+02 0.13031767457E+02 0.13100753346E+02 0.13176154309E+02
 0.13223863573E+02 0.13229088856E+02 0.13201924415E+02 0.13168344900E+02 0.13153713717E+02
 0.13168344900E+02 0.13201924415E+02 0.13229088856E+02 0.13223863573E+02 0.13176154309E+02
 0.13100753346E+02 0.13031767457E+02 0.13003914658E+02 0.13031767457E+02 0.13100753346E+02
 0.13176154309E+02 0.13223863573E+02 0.13229088856E+02 0.13201924415E+02 0.13168344900E+02
 0.13756212062E+02 0.13809624557E+02 0.13936693649E+02 0.14056270138E+02 0.14084463849E+02
 0.13974202552E+02 0.13725858971E+02 0.13388057278E+02 0.13031767457E+02 0.12717163403E+02
 0.12473527351E+02 0.12299980754E+02 0.12180051604E+02 0.12096836312E+02 0.12040263516E+02
 0.12006658753E+02 0.11995438176E+02 0.12006658753E+02 0.12040263516E+02 0.12096836312E+02
 0.12180051604E+02 0.12299980754E+02 0.12473527351E+02 0.12717163403E+02 0.13031767457E+02
 0.13388057278E+02 0.13725858971E+02 0.13974202552E+02 0.14084463849E+02 0.14056270138E+02
 0.13936693649E+02 0.13809624557E+02 0.13325160913E+02 0.13469880752E+02 0.13836431549E+02
 0.14253467013E+02 0.14525869845E+02 0.14524734540E+02 0.14236637767E+02 0.13725858971E+02
 0.13100753346E+02 0.12473527351E+02 0.11922330413E+02 0.11481354177E+02 0.11152457572E+02
 0.10922259067E+02 0.10773813060E+02 0.10691934185E+02 0.10665942965E+02 0.10691934185E+02
 0.10773813060E+02 0.10922259067E+02 0.11152457572E+02 0.11481354177E+02 0.11922330413E+02
 0.12473527351E+02 0.13100753346E+02 0.13725858971E+02 0.14236637767E+02 0.14524734540E+02
 0.14525869845E+02 0.14253467013E+02 0.13836431549E+02 0.13469880752E+02 0.11580570819E+02
 0.11864647281E+02 0.12609956379E+02 0.13538135633E+02 0.14311271701E+02 0.14668491213E+02
 0.14524734540E+02 0.13974202552E+02 0.13176154309E+02 0.12299980754E+02 0.11481354177E+02
 0.10795346687E+02 0.10264203350E+02 0.98799131512E+01 0.96239650553E+01 0.94785335139E+01
 0.94314804946E+01 0.94785335139E+01 0.96239650553E+01 0.98799131512E+01 0.10264203350E+02
 0.10795346687E+02 0.11481354177E+02 0.12299980754E+02 0.13176154309E+02 0.13974202552E+02
 0.14524734540E+02 0.14668491213E+02 0.14311271701E+02 0.13538135633E+02 0.12609956379E+02
 0.11864647281E+02 0.86761691161E+01 0.91238246741E+01 0.10325411574E+02 0.11902870818E+02
 0.13370665154E+02 0.14311271701E+02 0.14525869845E+02 0.14084463849E+02 0.13223863573E+02
 0.12180051604E+02 0.11152457572E+02 0.10264203350E+02 0.95620285587E+01 0.90447386521E+01
 0.86934195804E+01 0.84898854179E+01 0.84231895838E+01 0.84898854179E+01 0.86934195804E+01
 0.90447386521E+01 0.95620285587E+01 0.10264203350E+02 0.11152457572E+02 0.12180051604E+02
 0.13223863573E+02 0.14084463849E+02 0.14525869845E+02 0.14311271701E+02 0.13370665154E+02
 0.11902870818E+02 0.10325411574E+02 0.91238246741E+01 0.51984300005E+01 0.58003916707E+01
 0.74437827021E+01 0.96808066810E+01 0.11902870818E+02 0.13538135633E+02 0.14253467013E+02
 0.14056270138E+02 0.13229088856E+02 0.12096836312E+02 0.10922259067E+02 0.98799131512E+01
 0.90447386521E+01 0.84242155076E+01 0.79991753311E+01 0.77506601727E+01 0.76687021251E+01
 0.77506601727E+01 0.79991753311E+01 0.84242155076E+01 0.90447386521E+01 0.98799131512E+01
 0.10922259067E+02 0.12096836312E+02 0.13229088856E+02 0.14056270138E+02 0.14253467013E+02
 0.13538135633E+02 0.11902870818E+02 0.96808066810E+01 0.74437827021E+01 0.58003916707E+01
 0.19531885152E+01 0.26727467507E+01 0.46629323609E+01 0.74437827021E+01 0.10325411574E+02
 0.12609956379E+02 0.13836431549E+02 0.13936693649E+02 0.13201924415E+02 0.12040263516E+02
 0.10773813060E+02 0.96239650553E+01 0.86934195804E+01 0.79991753311E+01 0.75220949011E+01
 0.72419948425E+01 0.71493159848E+01 0.72419948425E+01 0.75220949011E+01 0.79991753311E+01
 0.86934195804E+01 0.96239650553E+01 0.10773813060E+02 0.12040263516E+02 0.13201924415E+02
 0.13936693649E+02 0.13836431549E+02 0.12609956379E+02 0.10325411574E+02 0.74437827021E+01
 0.46629323609E+01 0.26727467507E+01 -.31747209191E+00 0.47149560170E+00 0.26727467507E+01
 0.58003916707E+01 0.91238246741E+01 0.11864647281E+02 0.13469880752E+02 0.13809624557E+02
 0.13168344900E+02 0.12006658753E+02 0.10691934185E+02 0.94785335139E+01 0.84898854179E+01
 0.77506601727E+01 0.72419948425E+01 0.69427275329E+01 0.68435214591E+01 0.69427275329E+01
 0.72419948425E+01 0.77506601727E+01 0.84898854179E+01 0.94785335139E+01 0.10691934185E+02
 0.12006658753E+02 0.13168344900E+02 0.13809624557E+02 0.13469880752E+02 0.11864647281E+02
 0.91238246741E+01 0.58003916707E+01 0.26727467507E+01 0.47149560170E+00 -.31747209191E+00
 0.47149560170E+00 0.26727467507E+01 0.58003916707E+01 0.91238246741E+01 0.11864647281E+02
 0.13469880752E+02 0.13809624557E+02 0.13168344900E+02 0.12006658753E+02 0.10691934185E+02
 0.94785335139E+01 0.84898854179E+01 0.77506601727E+01 0.72419948425E+01 0.69427275329E+01
 0.68435214591E+01 0.69427275329E+01 0.72419948425E+01 0.77506601727E+01 0.84898854179E+01
 0.94785335139E+01 0.10691934185E+02 0.12006658753E+02 0.13168344900E+02 0.13809624557E+02
 0.13469880752E+02 0.11864647281E+02 0.91238246741E+01 0.58003916707E+01 0.26727467507E+01
 0.47149560170E+00 0.47149560170E+00 0.12375024225E+01 0.33682552277E+01 0.63784230845E+01
 0.95500475773E+01 0.12131949566E+02 0.13603290443E+02 0.13856453046E+02 0.13179372100E+02
 0.12015333201E+02 0.10715639364E+02 0.95231853900E+01 0.85540516627E+01 0.78301018587E+01
 0.73322761744E+01 0.70396553068E+01 0.69427275329E+01 0.70396553068E+01 0.73322761744E+01
 0.78301018587E+01 0.85540516627E+01 0.95231853900E+01 0.10715639364E+02 0.12015333201E+02
 0.13179372100E+02 0.13856453046E+02 0.13603290443E+02 0.12131949566E+02 0.95500475773E+01
 0.63784230845E+01 0.33682552277E+01 0.12375024225E+01 0.26727467507E+01 0.33682552277E+01
 0.52865742807E+01 0.79523026375E+01 0.10690820111E+02 0.12830546557E+02 0.13938857511E+02
 0.13965768997E+02 0.13203114261E+02 0.12041959318E+02 0.10791169472E+02 0.96618684592E+01
 0.87504068626E+01 0.80714031229E+01 0.76054334954E+01 0.73322761744E+01 0.72419948425E+01
 0.73322761744E+01 0.76054334954E+01 0.80714031229E+01 0.87504068626E+01 0.96618684592E+01
 0.10791169472E+02 0.12041959318E+02 0.13203114261E+02 0.13965768997E+02 0.13938857511E+02
 0.12830546557E+02 0.10690820111E+02 0.79523026375E+01 0.52865742807E+01 0.33682552277E+01
 0.58003916707E+01 0.63784230845E+01 0.79523026375E+01 0.10082830944E+02 0.12178763983E+02
 0.13692309412E+02 0.14313243431E+02 0.14061678022E+02 0.13216739554E+02 0.12088756374E+02
 0.10930403236E+02 0.99077453428E+01 0.90907733380E+01 0.84851764767E+01 0.80714031229E+01
 0.78301018587E+01 0.77506601727E+01 0.78301018587E+01 0.80714031229E+01 0.84851764767E+01
 0.90907733380E+01 0.99077453428E+01 0.10930403236E+02 0.12088756374E+02 0.13216739554E+02
 0.14061678022E+02 0.14313243431E+02 0.13692309412E+02 0.12178763983E+02 0.10082830944E+02
 0.79523026375E+01 0.63784230845E+01 0.91238246741E+01 0.95500475773E+01 0.10690820111E+02
 0.12178763983E+02 0.13545602774E+02 0.14394040077E+02 0.14542010834E+02 0.14066699057E+02
 0.13197380834E+02 0.12161217211E+02 0.11149709208E+02 0.10279553158E+02 0.95940344489E+01
 0.90907733380E+01 0.87504068626E+01 0.85540516627E+01 0.84898854179E+01 0.85540516627E+01
 0.87504068626E+01 0.90907733380E+01 0.95940344489E+01 0.10279553158E+02 0.11149709208E+02
 0.12161217211E+02 0.13197380834E+02 0.14066699057E+02 0.14542010834E+02 0.14394040077E+02
 0.13545602774E+02 0.12178763983E+02 0.10690820111E+02 0.95500475773E+01 0.11864647281E+02
 0.12131949566E+02 0.12830546557E+02 0.13692309412E+02 0.14394040077E+02 0.14690072607E+02
 0.14506188678E+02 0.13937466526E+02 0.13137543267E+02 0.12270717539E+02 0.11466739351E+02
 0.10796311888E+02 0.10279553158E+02 0.99077453428E+01 0.96618684592E+01 0.95231853900E+01
 0.94785335139E+01 0.95231853900E+01 0.96618684592E+01 0.99077453428E+01 0.10279553158E+02
 0.10796311888E+02 0.11466739351E+02 0.12270717539E+02 0.13137543267E+02 0.13937466526E+02
 0.14506188678E+02 0.14690072607E+02 0.14394040077E+02 0.13692309412E+02 0.12830546557E+02
 0.12131949566E+02 0.13469880752E+02 0.13603290443E+02 0.13938857511E+02 0.14313243431E+02
 0.14542010834E+02 0.14506188678E+02 0.14196715355E+02 0.13676905254E+02 0.13053443981E+02
 0.12434812681E+02 0.11895355615E+02 0.11466739351E+02 0.11149709208E+02 0.10930403236E+02
 0.10791169472E+02 0.10715639364E+02 0.10691934185E+02 0.10715639364E+02 0.10791169472E+02
 0.10930403236E+02 0.11149709208E+02 0.11466739351E+02 0.11895355615E+02 0.12434812681E+02
 0.13053443981E+02 0.13676905254E+02 0.14196715355E+02 0.14506188678E+02 0.14542010834E+02
 0.14313243431E+02 0.13938857511E+02 0.13603290443E+02 0.13809624557E+02 0.13856453046E+02
 0.13965768997E+02 0.14061678022E+02 0.14066699057E+02 0.13937466526E+02 0.13676905254E+02
 0.13334324999E+02 0.12979461561E+02 0.12670445575E+02 0.12434812681E+02 0.12270717539E+02
 0.12161217211E+02 0.12088756374E+02 0.12041959318E+02 0.12015333201E+02 0.12006658753E+02
 0.12015333201E+02 0.12041959318E+02 0.12088756374E+02 0.12161217211E+02 0.12270717539E+02
 0.12434812681E+02 0.12670445575E+02 0.12979461561E+02 0.13334324999E+02 0.13676905254E+02
 0.13937466526E+02 0.14066699057E+02 0.14061678022E+02 0.13965768997E+02 0.13856453046E+02
 0.13168344900E+02 0.13179372100E+02 0.13203114261E+02 0.13216739554E+02 0.13197380834E+02
 0.13137543267E+02 0.13053443981E+02 0.12979461561E+02 0.12950009915E+02 0.12979461561E+02
 0.13053443981E+02 0.13137543267E+02 0.13197380834E+02 0.13216739554E+02 0.13203114261E+02
 0.13179372100E+02 0.13168344900E+02 0.13179372100E+02 0.13203114261E+02 0.13216739554E+02
 0.13197380834E+02 0.13137543267E+02 0.13053443981E+02 0.12979461561E+02 0.12950009915E+02
 0.12979461561E+02 0.13053443981E+02 0.13137543267E+02 0.13197380834E+02 0.13216739554E+02
 0.13203114261E+02 0.13179372100E+02 0.12006658753E+02 0.12015333201E+02 0.12041959318E+02
 0.12088756374E+02 0.12161217211E+02 0.12270717539E+02 0.12434812681E+02 0.12670445575E+02
 0.12979461561E+02 0.13334324999E+02 0.13676905254E+02 0.13937466526E+02 0.14066699057E+02
 0.14061678022E+02 0.13965768997E+02 0.13856453046E+02 0.13809624557E+02 0.13856453046E+02
 0.13965768997E+02 0.14061678022E+02 0.14066699057E+02 0.13937466526E+02 0.13676905254E+02
 0.13334324999E+02 0.12979461561E+02 0.12670445575E+02 0.12434812681E+02 0.12270717539E+02
 0.12161217211E+02 0.12088756374E+02 0.12041959318E+02 0.12015333201E+02 0.10691934185E+02
 0.10715639364E+02 0.10791169472E+02 0.10930403236E+02 0.11149709208E+02 0.11466739351E+02
 0.11895355615E+02 0.12434812681E+02 0.13053443981E+02 0.13676905254E+02 0.14196715355E+02
 0.14506188678E+02 0.14542010834E+02 0.14313243431E+02 0.13938857511E+02 0.13603290443E+02
 0.13469880752E+02 0.13603290443E+02 0.13938857511E+02 0.14313243431E+02 0.14542010834E+02
 0.14506188678E+02 0.14196715355E+02 0.13676905254E+02 0.13053443981E+02 0.12434812681E+02
 0.11895355615E+02 0.11466739351E+02 0.11149709208E+02 0.10930403236E+02 0.10791169472E+02
 0.10715639364E+02 0.94785335139E+01 0.95231853900E+01 0.96618684592E+01 0.99077453428E+01
 0.10279553158E+02 0.10796311888E+02 0.11466739351E+02 0.12270717539E+02 0.13137543267E+02
 0.13937466526E+02 0.14506188678E+02 0.14690072607E+02 0.14394040077E+02 0.13692309412E+02
 0.12830546557E+02 0.12131949566E+02 0.11864647281E+02 0.12131949566E+02 0.12830546557E+02
 0.13692309412E+02 0.14394040077E+02 0.14690072607E+02 0.14506188678E+02 0.13937466526E+02
 0.13137543267E+02 0.12270717539E+02 0.11466739351E+02 0.10796311888E+02 0.10279553158E+02
 0.99077453428E+01 0.96618684592E+01 0.95231853900E+01 0.84898854179E+01 0.85540516627E+01
 0.87504068626E+01 0.90907733380E+01 0.95940344489E+01 0.10279553158E+02 0.11149709208E+02
 0.12161217211E+02 0.13197380834E+02 0.14066699057E+02 0.14542010834E+02 0.14394040077E+02
 0.13545602774E+02 0.12178763983E+02 0.10690820111E+02 0.95500475773E+01 0.91238246741E+01
 0.95500475773E+01 0.10690820111E+02 0.12178763983E+02 0.13545602774E+02 0.14394040077E+02
 0.14542010834E+02 0.14066699057E+02 0.13197380834E+02 0.12161217211E+02 0.11149709208E+02
 0.10279553158E+02 0.95940344489E+01 0.90907733380E+01 0.87504068626E+01 0.85540516627E+01
 0.77506601727E+01 0.78301018587E+01 0.80714031229E+01 0.84851764767E+01 0.90907733380E+01
 0.99077453428E+01 0.10930403236E+02 0.12088756374E+02 0.13216739554E+02 0.14061678022E+02
 0.14313243431E+02 0.13692309412E+02 0.12178763983E+02 0.10082830944E+02 0.79523026375E+01
 0.63784230845E+01 0.58003916707E+01 0.63784230845E+01 0.79523026375E+01 0.10082830944E+02
 0.12178763983E+02 0.13692309412E+02 0.14313243431E+02 0.14061678022E+02 0.13216739554E+02
 0.12088756374E+02 0.10930403236E+02 0.99077453428E+01 0.90907733380E+01 0.84851764767E+01
 0.80714031229E+01 0.78301018587E+01 0.72419948425E+01 0.73322761744E+01 0.76054334954E+01
 0.80714031229E+01 0.87504068626E+01 0.96618684592E+01 0.10791169472E+02 0.12041959318E+02
 0.13203114261E+02 0.13965768997E+02 0.13938857511E+02 0.12830546557E+02 0.10690820111E+02
 0.79523026375E+01 0.52865742807E+01 0.33682552277E+01 0.26727467507E+01 0.33682552277E+01
 0.52865742807E+01 0.79523026375E+01 0.10690820111E+02 0.12830546557E+02 0.13938857511E+02
 0.13965768997E+02 0.13203114261E+02 0.12041959318E+02 0.10791169472E+02 0.96618684592E+01
 0.87504068626E+01 0.80714031229E+01 0.76054334954E+01 0.73322761744E+01 0.69427275329E+01
 0.70396553068E+01 0.73322761744E+01 0.78301018587E+01 0.85540516627E+01 0.95231853900E+01
 0.10715639364E+02 0.12015333201E+02 0.13179372100E+02 0.13856453046E+02 0.13603290443E+02
 0.12131949566E+02 0.95500475773E+01 0.63784230845E+01 0.33682552277E+01 0.12375024225E+01
 0.47149560170E+00 0.12375024225E+01 0.33682552277E+01 0.63784230845E+01 0.95500475773E+01
 0.12131949566E+02 0.13603290443E+02 0.13856453046E+02 0.13179372100E+02 0.12015333201E+02
 0.10715639364E+02 0.95231853900E+01 0.85540516627E+01 0.78301018587E+01 0.73322761744E+01
 0.70396553068E+01 0.68435214591E+01 0.69427275329E+01 0.72419948425E+01 0.77506601727E+01
 0.84898854179E+01 0.94785335139E+01 0.10691934185E+02 0.12006658753E+02 0.13168344900E+02
 0.13809624557E+02 0.13469880752E+02 0.11864647281E+02 0.91238246741E+01 0.58003916707E+01
 0.26727467507E+01 0.47149560170E+00 -.31747209191E+00 0.47149560170E+00 0.26727467507E+01
 0.58003916707E+01 0.91238246741E+01 0.11864647281E+02 0.13469880752E+02 0.13809624557E+02
 0.13168344900E+02 0.12006658753E+02 0.10691934185E+02 0.94785335139E+01 0.84898854179E+01
 0.77506601727E+01 0.72419948425E+01 0.69427275329E+01 0.69427275329E+01 0.70396553068E+01
 0.73322761744E+01 0.78301018587E+01 0.85540516627E+01 0.95231853900E+01 0.10715639364E+02
 0.12015333201E+02 0.13179372100E+02 0.13856453046E+02 0.13603290443E+02 0.12131949566E+02
 0.95500475773E+01 0.63784230845E+01 0.33682552277E+01 0.12375024225E+01 0.47149560170E+00
 0.12375024225E+01 0.33682552277E+01 0.63784230845E+01 0.95500475773E+01 0.12131949566E+02
 0.13603290443E+02 0.13856453046E+02 0.13179372100E+02 0.12015333201E+02 0.10715639364E+02
 0.95231853900E+01 0.85540516627E+01 0.78301018587E+01 0.73322761744E+01 0.70396553068E+01
 0.72419948425E+01 0.73322761744E+01 0.76054334954E+01 0.80714031229E+01 0.87504068626E+01
 0.96618684592E+01 0.10791169472E+02 0.12041959318E+02 0.13203114261E+02 0.13965768997E+02
 0.13938857511E+02 0.12830546557E+02 0.10690820111E+02 0.79523026375E+01 0.52865742807E+01
 0.33682552277E+01 0.26727467507E+01 0.33682552277E+01 0.52865742807E+01 0.79523026375E+01
 0.10690820111E+02 0.12830546557E+02 0.13938857511E+02 0.13965768997E+02 0.13203114261E+02