    4    4    1    1
  0.1852200E+02  0.4200000E-09  0.4200000E-09  0.4200000E-09  0.5000000E-15
  1.000000000000000E-004
  CAR 
 bcc Al                                  
   12   35   10
 
  0.5000000E-01  0.5000000E-01  0.5000000E-01  0.8000000E-02
   1       -3.474733
   2        3.791344
   3        3.791344
   4        3.791344
   5        5.712595
   6        5.712595
   7        5.712595
   8       10.760093
   9       10.760093
  10       10.760093
 
  0.1500000E+00  0.5000000E-01  0.5000000E-01  0.2400000E-01
   1       -3.307046
   2        2.431294
   3        3.949509
   4        3.949509
   5        5.874154
   6        5.874154
   7        7.365336
   8        9.428193
   9        9.428193
  10       10.913950
 
  0.2500000E+00  0.5000000E-01  0.5000000E-01  0.2400000E-01
   1       -2.972372
   2        1.147457
   3        4.265658
   4        4.265658
   5        6.197146
   6        6.197146
   7        8.191768
   8        8.191768
   9        9.237732
  10       10.087465
 
  0.3500000E+00  0.5000000E-01  0.5000000E-01  0.2400000E-01
   1       -2.471704
   2        0.006955
   3        4.739452
   4        4.739452
   5        6.679773
   6        6.679773
   7        7.099173
   8        7.099173
   9        9.037547
  10        9.037547
 
  0.4500000E+00  0.5000000E-01  0.5000000E-01  0.2400000E-01
   1       -1.806685
   2       -0.979361
   3        5.370830
   4        5.370830
   5        6.157598
   6        6.157598
   7        7.317562
   8        7.317562
   9        8.108054
  10        8.108054
 
  0.1500000E+00  0.1500000E+00  0.5000000E-01  0.2400000E-01
   1       -3.139598
   2        2.592410
   3        2.592410
   4        4.107516
   5        6.035446
   6        7.524259
   7        7.524259
   8        8.123443
   9        9.583845
  10        9.583845
 
  0.2500000E+00  0.1500000E+00  0.5000000E-01  0.4800000E-01
   1       -2.805329
   2        1.310144
   3        2.914439
   4        4.423546
   5        6.358145
   6        6.886363
   7        7.841222
   8        8.348547
   9        9.393624
  10        9.894625
 
  0.3500000E+00  0.1500000E+00  0.5000000E-01  0.4800000E-01
   1       -2.305276
   2        0.170793
   3        3.396087
   4        4.897092
   5        5.785705
   6        6.840164
   7        7.255800
   8        8.314169
   9        9.193831
  10       10.359531
 
  0.4500000E+00  0.1500000E+00  0.5000000E-01  0.4800000E-01
   1       -1.640867
   2       -0.814526
   3        4.036301
   4        4.834377
   5        5.528276
   6        6.314743
   7        7.477264
   8        8.264345
   9        8.941110
  10        9.712865
 
  0.2500000E+00  0.2500000E+00  0.5000000E-01  0.2400000E-01
   1       -2.471803
   2        1.635027
   3        1.635027
   4        4.739293
   5        5.640413
   6        6.680098
   7        8.661068
   8        8.661068
   9        9.705567
  10        9.705567
 
  0.3500000E+00  0.2500000E+00  0.5000000E-01  0.4800000E-01
   1       -1.972854
   2        0.498081
   3        2.121037
   4        4.531366
   5        5.212875
   6        7.159939
   7        7.569277
   8        9.129039
   9        9.503728
  10       10.169731
 
  0.4500000E+00  0.2500000E+00  0.5000000E-01  0.4800000E-01
   1       -1.309777
   2       -0.485155
   3        2.767364
   4        3.571605
   5        5.843115
   6        6.629186
   7        7.794883
   8        8.579451
   9        9.751272
  10       10.526820
 
  0.3500000E+00  0.3500000E+00  0.5000000E-01  0.2400000E-01
   1       -1.475206
   2        0.987762
   3        0.987762
   4        3.414204
   5        5.685760
   6        7.637334
   7        8.039236
   8        8.039236
   9        9.968639
  10        9.968639
 
  0.4500000E+00  0.3500000E+00  0.5000000E-01  0.4800000E-01
   1       -0.814397
   2        0.007613
   3        1.638398
   4        2.448019
   5        6.315005
   6        7.100098
   7        8.268949
   8        8.664629
   9        9.049445
  10        9.443420
 
  0.4500000E+00  0.4500000E+00  0.5000000E-01  0.2400000E-01
   1       -0.156325
   2        0.662267
   3        0.662267
   4        1.476737
   5        6.943255
   6        7.727336
   7        7.727336
   8        8.509221
   9        8.896058
  10        9.670782
 
  0.1500000E+00  0.1500000E+00  0.1500000E+00  0.8000000E-02
   1       -2.972360
   2        2.753318
   3        2.753318
   4        2.753318
   5        7.682779
   6        7.682779
   7        7.682779
   8        8.280221
   9        8.280221
  10        8.280221
 
  0.2500000E+00  0.1500000E+00  0.1500000E+00  0.2400000E-01
   1       -2.638443
   2        1.472647
   3        3.075294
   4        3.075294
   5        7.043465
   6        7.043465
   7        8.000410
   8        8.000410
   9        8.592939
  10        9.550200
 
  0.3500000E+00  0.1500000E+00  0.1500000E+00  0.2400000E-01
   1       -2.138967
   2        0.334515
   3        3.556475
   4        3.556475
   5        5.944258
   6        5.944258
   7        8.472294
   8        8.472294
   9        9.061458
  10       10.770786
 
  0.4500000E+00  0.1500000E+00  0.1500000E+00  0.2400000E-01
   1       -1.475366
   2       -0.649716
   3        4.196006
   4        4.196006
   5        4.993558
   6        4.993558
   7        9.096547
   8        9.096547
   9        9.684101
  10        9.868257
 
  0.2500000E+00  0.2500000E+00  0.1500000E+00  0.2400000E-01
   1       -2.305320
   2        1.797122
   3        1.797122
   4        3.396169
   5        5.799037
   6        7.358725
   7        7.358725
   8        8.315638
   9        9.861271
  10        9.861271
 
  0.3500000E+00  0.2500000E+00  0.1500000E+00  0.4800000E-01
   1       -1.806753
   2        0.661405
   3        2.282678
   4        3.876249
   5        4.691102
   6        6.260741
   7        7.830508
   8        8.786304
   9       10.166747
  10       10.324223
 
  0.4500000E+00  0.2500000E+00  0.1500000E+00  0.4800000E-01
   1       -1.144488
   2       -0.320771
   3        2.928322
   4        3.731427
   5        4.516362
   6        5.311499
   7        8.457184
   8        9.237187
   9        9.408690
  10       10.177205
 
  0.3500000E+00  0.3500000E+00  0.1500000E+00  0.2400000E-01
   1       -1.309849
   2        1.150554
   3        1.150554
   4        3.574057
   5        4.356787
   6        6.734847
   7        6.734847
   8        9.085718
   9        9.254924
  10       11.533149
 
  0.4500000E+00  0.3500000E+00  0.1500000E+00  0.4800000E-01
   1       -0.649657
   2        0.171467
   3        1.800570
   4        2.609257
   5        4.993943
   6        5.787819
   7        7.365376
   8        8.149849
   9        9.874897
  10       10.639300
 
  0.4500000E+00  0.4500000E+00  0.1500000E+00  0.2400000E-01
   1        0.007678
   2        0.825378
   3        0.825378
   4        1.639036
   5        5.629561
   6        6.420813
   7        6.420813
   8        7.209135
   9       10.490510
  10       11.249590
 
  0.2500000E+00  0.2500000E+00  0.2500000E+00  0.8000000E-02
   1       -1.972907
   2        2.120883
   3        2.120883
   4        2.120883
   5        6.115933
   6        6.115933
   7        6.115933
   8       10.024445
   9       10.171018
  10       10.171018
 
  0.3500000E+00  0.2500000E+00  0.2500000E+00  0.2400000E-01
   1       -1.475323
   2        0.987603
   3        2.605455
   4        2.605455
   5        5.009824
   6        5.009824
   7        6.591319
   8        8.944094
   9       10.632846
  10       10.632846
 
  0.4500000E+00  0.2500000E+00  0.2500000E+00  0.2400000E-01
   1       -0.814570
   2        0.007471
   3        3.249124
   4        3.249124
   5        4.054173
   6        4.054173
   7        7.222144
   8        8.007594
   9       11.239545
  10       11.239545
 
  0.3500000E+00  0.3500000E+00  0.2500000E+00  0.2400000E-01
   1       -0.979529
   2        1.475696
   3        1.475696
   4        3.088222
   5        3.897713
   6        5.487249
   7        5.487249
   8        7.854812
   9       11.091518
  10       12.612981
 
  0.4500000E+00  0.3500000E+00  0.2500000E+00  0.4800000E-01
   1       -0.320790
   2        0.498661
   3        2.124233
   4        2.930227
   5        3.734371
   6        4.533464
   7        6.122391
   8        6.912644
   9       11.695983
  10       12.432335
 
  0.4500000E+00  0.4500000E+00  0.2500000E+00  0.2400000E-01
   1        0.335190
   2        1.151176
   3        1.151176
   4        1.962918
   5        4.373574
   6        5.171358
   7        5.171358
   8        5.965522
   9       12.296722
  10       13.028424
 
  0.3500000E+00  0.3500000E+00  0.3500000E+00  0.8000000E-02
   1       -0.485308
   2        1.962126
   3        1.962126
   4        1.962126
   5        4.377182
   6        4.377182
   7        4.377182
   8        6.759060
   9       13.058156
  10       13.058156
 
  0.4500000E+00  0.3500000E+00  0.3500000E+00  0.2400000E-01
   1        0.171286
   2        0.988078
   3        2.607044
   4        2.607044
   5        3.418254
   6        3.418254
   7        5.015334
   8        5.810906
   9       13.632284
  10       13.632284
 
  0.4500000E+00  0.4500000E+00  0.3500000E+00  0.2400000E-01
   1        0.825119
   2        1.638366
   3        1.638366
   4        2.445875
   5        3.258060
   6        4.058277
   7        4.058277
   8        4.857564
   9       14.206942
  10       14.857498
 
  0.4500000E+00  0.4500000E+00  0.4500000E+00  0.8000000E-02
   1        1.475896
   2        2.283843
   3        2.283843
   4        2.283843
   5        3.098741
   6        3.098741
   7        3.098741
   8        3.899170
   9       16.091017
  10       16.091017
