       N       E                     dE             d eps       ncg     rms          rms(c)
DAV:   1    -0.146023286454E+02   -0.14602E+02   -0.31712E-01   774   0.441E+00    0.254E-01
DAV:   2    -0.146011090294E+02    0.12196E-02   -0.23870E-03   802   0.372E-01    0.156E-01
DAV:   3    -0.146003088597E+02    0.80017E-03   -0.89999E-04   736   0.205E-01    0.716E-03
DAV:   4    -0.146003042164E+02    0.46433E-05   -0.43894E-06   800   0.191E-02    0.426E-03
DAV:   5    -0.146002990577E+02    0.51587E-05   -0.26899E-07   370   0.458E-03    0.238E-04
DAV:   6    -0.146002992762E+02   -0.21846E-06   -0.25200E-08   364   0.143E-03
   1 F= -.14600299E+02 E0= -.14600144E+02  d E =-.465618E-03
