 vasp.5.3.2 13Sep12 (build Jun 30 2016 14:08:18) complex                        
  
 executed on             LinuxIFC date 2017.10.16  16:02:25
 running on    2 total cores
 distrk:  each k-point on    2 cores,    1 groups
 distr:  one band on NCORES_PER_BAND=   1 cores,    2 groups


--------------------------------------------------------------------------------------------------------


 INCAR:
 POTCAR:    PAW Al                                
 POTCAR:    PAW Al                                
   VRHFIN =Al: s2p1                                                             
   LEXCH  = 91                                                                  
   EATOM  =    53.6910 eV,    3.9462 Ry                                         
                                                                                
   TITEL  = PAW Al                                                              
   LULTRA =        F    use ultrasoft PP ?                                      
   IUNSCR =        1    unscreen: 0-lin 1-nonlin 2-no                           
   RPACOR =    1.500    partial core radius                                     
   POMASS =   26.982; ZVAL   =    3.000    mass and valenz                      
   RCORE  =    1.900    outmost cutoff radius                                   
   RWIGS  =    2.650; RWIGS  =    1.402    wigner-seitz radius (au A)           
   ENMAX  =  240.437; ENMIN  =  180.327 eV                                      
   ICORE  =        2    local potential                                         
   LCOR   =        T    correct aug charges                                     
   LPAW   =        T    paw PP                                                  
   EAUG   =  291.052                                                            
   DEXC   =    -.017                                                            
   RMAX   =    2.974    core radius for proj-oper                               
   RAUG   =    1.300    factor for augmentation sphere                          
   RDEP   =    1.966    core radius for depl-charge                             
   QCUT   =   -4.204; QGAM   =    8.408    optimization parameters              
                                                                                
   Description                                                                  
     l     E      TYP  RCUT    TYP  RCUT                                        
     0   .000     23  1.900                                                     
     0   .000     23  1.900                                                     
     1   .000     23  1.900                                                     
     1  1.000     23  1.900                                                     
     2   .000      7  1.900                                                     
  local pseudopotential read in
  partial core-charges read in
  atomic valenz-charges read in
  non local Contribution for L=           0  read in
    real space projection operators read in
  non local Contribution for L=           0  read in
    real space projection operators read in
  non local Contribution for L=           1  read in
    real space projection operators read in
  non local Contribution for L=           1  read in
    real space projection operators read in
    PAW grid and wavefunctions read in
 
   number of l-projection  operators is LMAX  =           4
   number of lm-projection operators is LMMAX =           8
 
  PAW Al                                :
 energy of atom  1       EATOM=  -53.6910
 kinetic energy error for atom=    0.0030 (will be added to EATOM!!)
 
 
 POSCAR: Al                                      
  positions in direct lattice
  No initial velocities read in
 exchange correlation table for  LEXCH =        7
   RHO(1)=    0.500       N(1)  =     2000
   RHO(2)=  100.500       N(2)  =     4000
 


--------------------------------------------------------------------------------------------------------


 ion  position               nearest neighbor table
   1  0.000  0.000  0.000-   2 2.97   3 2.97   4 2.97   2 2.97   3 2.97   2 2.97   4 2.97   2 2.97
                             3 2.97   4 2.97   3 2.97   4 2.97
   2  0.000  0.500  0.500-   1 2.97   3 2.97   4 2.97   1 2.97   4 2.97   1 2.97   3 2.97   1 2.97
                             3 2.97   4 2.97   4 2.97   3 2.97
   3  0.500  0.000  0.500-   1 2.97   2 2.97   4 2.97   1 2.97   4 2.97   2 2.97   4 2.97   4 2.97
                             1 2.97   2 2.97   1 2.97   2 2.97
   4  0.500  0.500  0.000-   1 2.97   2 2.97   3 2.97   2 2.97   3 2.97   1 2.97   3 2.97   3 2.97
                             1 2.97   2 2.97   2 2.97   1 2.97
 
  LATTYP: Found a simple cubic cell.
 ALAT       =     4.2000000000
  
  Lattice vectors:
  
 A1 = (   4.2000000000,   0.0000000000,   0.0000000000)
 A2 = (   0.0000000000,   4.2000000000,   0.0000000000)
 A3 = (   0.0000000000,   0.0000000000,   4.2000000000)


Analysis of symmetry for initial positions (statically):
=====================================================================
 Subroutine PRICEL returns following result:
 
  LATTYP: Found a face centered cubic cell.
 ALAT       =     4.2000000000
  
  Lattice vectors:
  
 A1 = (   2.1000000000,   2.1000000000,   0.0000000000)
 A2 = (   2.1000000000,   0.0000000000,  -2.1000000000)
 A3 = (   0.0000000000,   2.1000000000,  -2.1000000000)
 
   4 primitive cells build up your supercell.
 

 Routine SETGRP: Setting up the symmetry group for a 
 simple cubic supercell.


 Subroutine GETGRP returns: Found 48 space group operations
 (whereof 48 operations were pure point group operations)
 out of a pool of 48 trial point group operations.


The static configuration has the point symmetry O_h .


Analysis of symmetry for dynamics (positions and initial velocities):
=====================================================================
 Subroutine PRICEL returns following result:
 
  LATTYP: Found a face centered cubic cell.
 ALAT       =     4.2000000000
  
  Lattice vectors:
  
 A1 = (   2.1000000000,   2.1000000000,   0.0000000000)
 A2 = (   2.1000000000,   0.0000000000,  -2.1000000000)
 A3 = (   0.0000000000,   2.1000000000,  -2.1000000000)
 
   4 primitive cells build up your supercell.
 

 Routine SETGRP: Setting up the symmetry group for a 
 simple cubic supercell.


 Subroutine GETGRP returns: Found 48 space group operations
 (whereof 48 operations were pure point group operations)
 out of a pool of 48 trial point group operations.


The dynamic configuration has the point symmetry O_h .
 
 
 KPOINTS: 10x10x10                                

Automatic generation of k-mesh.
Space group operators:
 irot       det(A)        alpha          n_x          n_y          n_z        tau_x        tau_y        tau_z
    1     1.000000     0.000000     1.000000     0.000000     0.000000     0.000000     0.000000     0.000000
    2    -1.000000     0.000000     1.000000     0.000000     0.000000     0.000000     0.000000     0.000000
    3     1.000000   120.000000    -0.577350    -0.577350    -0.577350     0.000000     0.000000     0.000000
    4    -1.000000   120.000000    -0.577350    -0.577350    -0.577350     0.000000     0.000000     0.000000
    5     1.000000   120.000000     0.577350     0.577350     0.577350     0.000000     0.000000     0.000000
    6    -1.000000   120.000000     0.577350     0.577350     0.577350     0.000000     0.000000     0.000000
    7     1.000000    90.000000     0.000000     0.000000    -1.000000     0.000000     0.000000     0.000000
    8    -1.000000    90.000000     0.000000     0.000000    -1.000000     0.000000     0.000000     0.000000
    9     1.000000   180.000000     0.000000     0.707107     0.707107     0.000000     0.000000     0.000000
   10    -1.000000   180.000000     0.000000     0.707107     0.707107     0.000000     0.000000     0.000000
   11     1.000000    90.000000     0.000000     1.000000     0.000000     0.000000     0.000000     0.000000
   12    -1.000000    90.000000     0.000000     1.000000     0.000000     0.000000     0.000000     0.000000
   13     1.000000   180.000000     0.000000     0.000000     1.000000     0.000000     0.000000     0.000000
   14    -1.000000   180.000000     0.000000     0.000000     1.000000     0.000000     0.000000     0.000000
   15     1.000000   120.000000    -0.577350     0.577350     0.577350     0.000000     0.000000     0.000000
   16    -1.000000   120.000000    -0.577350     0.577350     0.577350     0.000000     0.000000     0.000000
   17     1.000000   120.000000    -0.577350     0.577350    -0.577350     0.000000     0.000000     0.000000
   18    -1.000000   120.000000    -0.577350     0.577350    -0.577350     0.000000     0.000000     0.000000
   19     1.000000    90.000000     0.000000     0.000000     1.000000     0.000000     0.000000     0.000000
   20    -1.000000    90.000000     0.000000     0.000000     1.000000     0.000000     0.000000     0.000000
   21     1.000000    90.000000    -1.000000     0.000000     0.000000     0.000000     0.000000     0.000000
   22    -1.000000    90.000000    -1.000000     0.000000     0.000000     0.000000     0.000000     0.000000
   23     1.000000   180.000000     0.707107     0.000000     0.707107     0.000000     0.000000     0.000000
   24    -1.000000   180.000000     0.707107     0.000000     0.707107     0.000000     0.000000     0.000000
   25     1.000000   120.000000     0.577350    -0.577350     0.577350     0.000000     0.000000     0.000000
   26    -1.000000   120.000000     0.577350    -0.577350     0.577350     0.000000     0.000000     0.000000
   27     1.000000   120.000000    -0.577350    -0.577350     0.577350     0.000000     0.000000     0.000000
   28    -1.000000   120.000000    -0.577350    -0.577350     0.577350     0.000000     0.000000     0.000000
   29     1.000000   180.000000     1.000000     0.000000     0.000000     0.000000     0.000000     0.000000
   30    -1.000000   180.000000     1.000000     0.000000     0.000000     0.000000     0.000000     0.000000
   31     1.000000    90.000000     0.000000    -1.000000     0.000000     0.000000     0.000000     0.000000
   32    -1.000000    90.000000     0.000000    -1.000000     0.000000     0.000000     0.000000     0.000000
   33     1.000000   180.000000     0.707107     0.707107     0.000000     0.000000     0.000000     0.000000
   34    -1.000000   180.000000     0.707107     0.707107     0.000000     0.000000     0.000000     0.000000
   35     1.000000    90.000000     1.000000     0.000000     0.000000     0.000000     0.000000     0.000000
   36    -1.000000    90.000000     1.000000     0.000000     0.000000     0.000000     0.000000     0.000000
   37     1.000000   120.000000     0.577350    -0.577350    -0.577350     0.000000     0.000000     0.000000
   38    -1.000000   120.000000     0.577350    -0.577350    -0.577350     0.000000     0.000000     0.000000
   39     1.000000   180.000000     0.000000     1.000000     0.000000     0.000000     0.000000     0.000000
   40    -1.000000   180.000000     0.000000     1.000000     0.000000     0.000000     0.000000     0.000000
   41     1.000000   120.000000     0.577350     0.577350    -0.577350     0.000000     0.000000     0.000000
   42    -1.000000   120.000000     0.577350     0.577350    -0.577350     0.000000     0.000000     0.000000
   43     1.000000   180.000000     0.000000    -0.707107     0.707107     0.000000     0.000000     0.000000
   44    -1.000000   180.000000     0.000000    -0.707107     0.707107     0.000000     0.000000     0.000000
   45     1.000000   180.000000     0.707107    -0.707107     0.000000     0.000000     0.000000     0.000000
   46    -1.000000   180.000000     0.707107    -0.707107     0.000000     0.000000     0.000000     0.000000
   47     1.000000   180.000000     0.707107     0.000000    -0.707107     0.000000     0.000000     0.000000
   48    -1.000000   180.000000     0.707107     0.000000    -0.707107     0.000000     0.000000     0.000000
 
 Subroutine IBZKPT returns following result:
 ===========================================
 
 Found     35 irreducible k-points:
 
 Following reciprocal coordinates:
            Coordinates               Weight
  0.050000  0.050000  0.050000      8.000000
  0.150000  0.050000  0.050000     24.000000
  0.250000  0.050000  0.050000     24.000000
  0.350000  0.050000  0.050000     24.000000
  0.450000  0.050000  0.050000     24.000000
  0.150000  0.150000  0.050000     24.000000
  0.250000  0.150000  0.050000     48.000000
  0.350000  0.150000  0.050000     48.000000
  0.450000  0.150000  0.050000     48.000000
  0.250000  0.250000  0.050000     24.000000
  0.350000  0.250000  0.050000     48.000000
  0.450000  0.250000  0.050000     48.000000
  0.350000  0.350000  0.050000     24.000000
  0.450000  0.350000  0.050000     48.000000
  0.450000  0.450000  0.050000     24.000000
  0.150000  0.150000  0.150000      8.000000
  0.250000  0.150000  0.150000     24.000000
  0.350000  0.150000  0.150000     24.000000
  0.450000  0.150000  0.150000     24.000000
  0.250000  0.250000  0.150000     24.000000
  0.350000  0.250000  0.150000     48.000000
  0.450000  0.250000  0.150000     48.000000
  0.350000  0.350000  0.150000     24.000000
  0.450000  0.350000  0.150000     48.000000
  0.450000  0.450000  0.150000     24.000000
  0.250000  0.250000  0.250000      8.000000
  0.350000  0.250000  0.250000     24.000000
  0.450000  0.250000  0.250000     24.000000
  0.350000  0.350000  0.250000     24.000000
  0.450000  0.350000  0.250000     48.000000
  0.450000  0.450000  0.250000     24.000000
  0.350000  0.350000  0.350000      8.000000
  0.450000  0.350000  0.350000     24.000000
  0.450000  0.450000  0.350000     24.000000
  0.450000  0.450000  0.450000      8.000000
 
 Following cartesian coordinates:
            Coordinates               Weight
  0.050000  0.050000  0.050000      8.000000
  0.150000  0.050000  0.050000     24.000000
  0.250000  0.050000  0.050000     24.000000
  0.350000  0.050000  0.050000     24.000000
  0.450000  0.050000  0.050000     24.000000
  0.150000  0.150000  0.050000     24.000000
  0.250000  0.150000  0.050000     48.000000
  0.350000  0.150000  0.050000     48.000000
  0.450000  0.150000  0.050000     48.000000
  0.250000  0.250000  0.050000     24.000000
  0.350000  0.250000  0.050000     48.000000
  0.450000  0.250000  0.050000     48.000000
  0.350000  0.350000  0.050000     24.000000
  0.450000  0.350000  0.050000     48.000000
  0.450000  0.450000  0.050000     24.000000
  0.150000  0.150000  0.150000      8.000000
  0.250000  0.150000  0.150000     24.000000
  0.350000  0.150000  0.150000     24.000000
  0.450000  0.150000  0.150000     24.000000
  0.250000  0.250000  0.150000     24.000000
  0.350000  0.250000  0.150000     48.000000
  0.450000  0.250000  0.150000     48.000000
  0.350000  0.350000  0.150000     24.000000
  0.450000  0.350000  0.150000     48.000000
  0.450000  0.450000  0.150000     24.000000
  0.250000  0.250000  0.250000      8.000000
  0.350000  0.250000  0.250000     24.000000
  0.450000  0.250000  0.250000     24.000000
  0.350000  0.350000  0.250000     24.000000
  0.450000  0.350000  0.250000     48.000000
  0.450000  0.450000  0.250000     24.000000
  0.350000  0.350000  0.350000      8.000000
  0.450000  0.350000  0.350000     24.000000
  0.450000  0.450000  0.350000     24.000000
  0.450000  0.450000  0.450000      8.000000
 


--------------------------------------------------------------------------------------------------------




 Dimension of arrays:
   k-points           NKPTS =     35   k-points in BZ     NKDIM =     35   number of bands    NBANDS=     10
   number of dos      NEDOS =    301   number of ions     NIONS =      4
   non local maximal  LDIM  =      4   non local SUM 2l+1 LMDIM =      8
   total plane-waves  NPLWV =   4096
   max r-space proj   IRMAX =      1   max aug-charges    IRDMAX=   2351
   dimension x,y,z NGX =    16 NGY =   16 NGZ =   16
   dimension x,y,z NGXF=    32 NGYF=   32 NGZF=   32
   support grid    NGXF=    32 NGYF=   32 NGZF=   32
   ions per type =               4
 NGX,Y,Z   is equivalent  to a cutoff of   6.33,  6.33,  6.33 a.u.
 NGXF,Y,Z  is equivalent  to a cutoff of  12.67, 12.67, 12.67 a.u.


 I would recommend the setting:
   dimension x,y,z NGX =    16 NGY =   16 NGZ =   16
 SYSTEM =  bcc Al                                  
 POSCAR =  Al                                      

 Startparameter for this run:
   NWRITE =      2    write-flag & timer
   PREC   = normal    normal or accurate (medium, high low for compatibility)
   ISTART =      1    job   : 0-new  1-cont  2-samecut
   ICHARG =      0    charge: 1-file 2-atom 10-const
   ISPIN  =      1    spin polarized calculation?
   LNONCOLLINEAR =      F non collinear calculations
   LSORBIT =      F    spin-orbit coupling
   INIWAV =      1    electr: 0-lowe 1-rand  2-diag
   LASPH  =      F    aspherical Exc in radial PAW
   METAGGA=      F    non-selfconsistent MetaGGA calc.

 Electronic Relaxation 1
   ENCUT  =  240.4 eV  17.67 Ry    4.20 a.u.   5.31  5.31  5.31*2*pi/ulx,y,z
   ENINI  =  240.4     initial cutoff
   ENAUG  =  291.1 eV  augmentation charge cutoff
   NELM   =     60;   NELMIN=  2; NELMDL=  0     # of ELM steps 
   EDIFF  = 0.1E-05   stopping-criterion for ELM
   LREAL  =      F    real-space projection
   NLSPLINE    = F    spline interpolate recip. space projectors
   LCOMPAT=      F    compatible to vasp.4.4
   GGA_COMPAT  = T    GGA compatible to vasp.4.4-vasp.4.6
   LMAXPAW     = -100 max onsite density
   LMAXMIX     =    2 max onsite mixed and CHGCAR
   VOSKOWN=      0    Vosko Wilk Nusair interpolation
   ROPT   =    0.00000
 Ionic relaxation
   EDIFFG = 0.1E-04   stopping-criterion for IOM
   NSW    =      0    number of steps for IOM
   NBLOCK =      1;   KBLOCK =      1    inner block; outer block 
   IBRION =     -1    ionic relax: 0-MD 1-quasi-New 2-CG
   NFREE  =      0    steps in history (QN), initial steepest desc. (CG)
   ISIF   =      2    stress and relaxation
   IWAVPR =     10    prediction:  0-non 1-charg 2-wave 3-comb
   ISYM   =      2    0-nonsym 1-usesym 2-fastsym
   LCORR  =      T    Harris-Foulkes like correction to forces

   POTIM  = 0.5000    time-step for ionic-motion
   TEIN   =    0.0    initial temperature
   TEBEG  =    0.0;   TEEND  =   0.0 temperature during run
   SMASS  =  -3.00    Nose mass-parameter (am)
   estimated Nose-frequenzy (Omega)   =  0.10E-29 period in steps =****** mass=  -0.403E-27a.u.
   SCALEE = 1.0000    scale energy and forces
   NPACO  =    256;   APACO  = 16.0  distance and # of slots for P.C.
   PSTRESS=    0.0 pullay stress

  Mass of Ions in am
   POMASS =  26.98
  Ionic Valenz
   ZVAL   =   3.00
  Atomic Wigner-Seitz radii
   RWIGS  =   1.40
  virtual crystal weights 
   VCA    =   1.00
   NELECT =      12.0000    total number of electrons
   NUPDOWN=      -1.0000    fix difference up-down

 DOS related values:
   EMIN   =  10.00;   EMAX   =-10.00  energy-range for DOS
   EFERMI =   0.00
   ISMEAR =     1;   SIGMA  =   0.20  broadening in eV -4-tet -1-fermi 0-gaus

 Electronic relaxation 2 (details)
   IALGO  =     38    algorithm
   LDIAG  =      T    sub-space diagonalisation (order eigenvalues)
   LSUBROT=      T    optimize rotation matrix (better conditioning)
   TURBO    =      0    0=normal 1=particle mesh
   IRESTART =      0    0=no restart 2=restart with 2 vectors
   NREBOOT  =      0    no. of reboots
   NMIN     =      0    reboot dimension
   EREF     =   0.00    reference energy to select bands
   IMIX   =      4    mixing-type and parameters
     AMIX     =   0.40;   BMIX     =  1.00
     AMIX_MAG =   1.60;   BMIX_MAG =  1.00
     AMIN     =   0.10
     WC   =   100.;   INIMIX=   1;  MIXPRE=   1;  MAXMIX= -45

 Intra band minimization:
   WEIMIN = 0.0000     energy-eigenvalue tresh-hold
   EBREAK =  0.25E-07  absolut break condition
   DEPER  =   0.30     relativ break condition  

   TIME   =   0.40     timestep for ELM

  volume/ion in A,a.u.               =      18.52       124.99
  Fermi-wavevector in a.u.,A,eV,Ry     =   0.892386  1.686365 10.835031  0.796352
  Thomas-Fermi vector in A             =   2.014328
 
 Write flags
   LWAVE  =      T    write WAVECAR
   LCHARG =      T    write CHGCAR
   LVTOT  =      F    write LOCPOT, total local potential
   LVHAR  =      F    write LOCPOT, Hartree potential only
   LELF   =      F    write electronic localiz. function (ELF)
   LORBIT =      0    0 simple, 1 ext, 2 COOP (PROOUT)


 Dipole corrections
   LMONO  =      F    monopole corrections only (constant potential shift)
   LDIPOL =      F    correct potential (dipole corrections)
   IDIPOL =      0    1-x, 2-y, 3-z, 4-all directions 
   EPSILON=  1.0000000 bulk dielectric constant

 Exchange correlation treatment:
   GGA     =    --    GGA type
   LEXCH   =     7    internal setting for exchange type
   VOSKOWN=      0    Vosko Wilk Nusair interpolation
   LHFCALC =     F    Hartree Fock is set to
   LHFONE  =     F    Hartree Fock one center treatment
   AEXX    =    0.0000 exact exchange contribution

 Linear response parameters
   LEPSILON=     F    determine dielectric tensor
   LRPA    =     F    only Hartree local field effects (RPA)
   LNABLA  =     F    use nabla operator in PAW spheres
   LVEL    =     F    velocity operator in full k-point grid
   LINTERFAST=   F  fast interpolation
   KINTER  =     0    interpolate to denser k-point grid
   CSHIFT  =0.1000    complex shift for real part using Kramers Kronig
   OMEGAMAX=  -1.0    maximum frequency
   DEG_THRESHOLD= 0.2000000E-02 threshold for treating states as degnerate
   RTIME   =    0.100 relaxation time in fs

 Orbital magnetization related:
   ORBITALMAG=     F  switch on orbital magnetization
   LCHIMAG   =     F  perturbation theory with respect to B field
   DQ        =  0.001000  dq finite difference perturbation B field



--------------------------------------------------------------------------------------------------------


 Static calculation
 charge density and potential will be updated during run
 non-spin polarized calculation
 Variant of blocked Davidson
 Davidson routine will perform the subspace rotation
 perform sub-space diagonalisation
    after iterative eigenvector-optimisation
 modified Broyden-mixing scheme, WC =      100.0
 initial mixing is a Kerker type mixing with AMIX =  0.4000 and BMIX =      1.0000
 Hartree-type preconditioning will be used
 using additional bands            4
 reciprocal scheme for non local part
 use partial core corrections
 calculate Harris-corrections to forces 
   (improved forces if not selfconsistent)
 use gradient corrections 
 use of overlap-Matrix (Vanderbilt PP)
 Methfessel and Paxton  Order N= 1 SIGMA  =   0.20


--------------------------------------------------------------------------------------------------------


  energy-cutoff  :      240.44
  volume of cell :       74.09
      direct lattice vectors                 reciprocal lattice vectors
     4.200000000  0.000000000  0.000000000     0.238095238  0.000000000  0.000000000
     0.000000000  4.200000000  0.000000000     0.000000000  0.238095238  0.000000000
     0.000000000  0.000000000  4.200000000     0.000000000  0.000000000  0.238095238

  length of vectors
     4.200000000  4.200000000  4.200000000     0.238095238  0.238095238  0.238095238


 
 old parameters found on file WAVECAR:
  energy-cutoff  :      240.44
  volume of cell :       71.47
      direct lattice vectors                 reciprocal lattice vectors
     4.150000000  0.000000000  0.000000000     0.240963855  0.000000000  0.000000000
     0.000000000  4.150000000  0.000000000     0.000000000  0.240963855  0.000000000
     0.000000000  0.000000000  4.150000000     0.000000000  0.000000000  0.240963855

  length of vectors

 
 k-points in units of 2pi/SCALE and weight: 10x10x10                                
   0.05000000  0.05000000  0.05000000       0.008
   0.15000000  0.05000000  0.05000000       0.024
   0.25000000  0.05000000  0.05000000       0.024
   0.35000000  0.05000000  0.05000000       0.024
   0.45000000  0.05000000  0.05000000       0.024
   0.15000000  0.15000000  0.05000000       0.024
   0.25000000  0.15000000  0.05000000       0.048
   0.35000000  0.15000000  0.05000000       0.048
   0.45000000  0.15000000  0.05000000       0.048
   0.25000000  0.25000000  0.05000000       0.024
   0.35000000  0.25000000  0.05000000       0.048
   0.45000000  0.25000000  0.05000000       0.048
   0.35000000  0.35000000  0.05000000       0.024
   0.45000000  0.35000000  0.05000000       0.048
   0.45000000  0.45000000  0.05000000       0.024
   0.15000000  0.15000000  0.15000000       0.008
   0.25000000  0.15000000  0.15000000       0.024
   0.35000000  0.15000000  0.15000000       0.024
   0.45000000  0.15000000  0.15000000       0.024
   0.25000000  0.25000000  0.15000000       0.024
   0.35000000  0.25000000  0.15000000       0.048
   0.45000000  0.25000000  0.15000000       0.048
   0.35000000  0.35000000  0.15000000       0.024
   0.45000000  0.35000000  0.15000000       0.048
   0.45000000  0.45000000  0.15000000       0.024
   0.25000000  0.25000000  0.25000000       0.008
   0.35000000  0.25000000  0.25000000       0.024
   0.45000000  0.25000000  0.25000000       0.024
   0.35000000  0.35000000  0.25000000       0.024
   0.45000000  0.35000000  0.25000000       0.048
   0.45000000  0.45000000  0.25000000       0.024
   0.35000000  0.35000000  0.35000000       0.008
   0.45000000  0.35000000  0.35000000       0.024
   0.45000000  0.45000000  0.35000000       0.024
   0.45000000  0.45000000  0.45000000       0.008
 
 k-points in reciprocal lattice and weights: 10x10x10                                
   0.05000000  0.05000000  0.05000000       0.008
   0.15000000  0.05000000  0.05000000       0.024
   0.25000000  0.05000000  0.05000000       0.024
   0.35000000  0.05000000  0.05000000       0.024
   0.45000000  0.05000000  0.05000000       0.024
   0.15000000  0.15000000  0.05000000       0.024
   0.25000000  0.15000000  0.05000000       0.048
   0.35000000  0.15000000  0.05000000       0.048
   0.45000000  0.15000000  0.05000000       0.048
   0.25000000  0.25000000  0.05000000       0.024
   0.35000000  0.25000000  0.05000000       0.048
   0.45000000  0.25000000  0.05000000       0.048
   0.35000000  0.35000000  0.05000000       0.024
   0.45000000  0.35000000  0.05000000       0.048
   0.45000000  0.45000000  0.05000000       0.024
   0.15000000  0.15000000  0.15000000       0.008
   0.25000000  0.15000000  0.15000000       0.024
   0.35000000  0.15000000  0.15000000       0.024
   0.45000000  0.15000000  0.15000000       0.024
   0.25000000  0.25000000  0.15000000       0.024
   0.35000000  0.25000000  0.15000000       0.048
   0.45000000  0.25000000  0.15000000       0.048
   0.35000000  0.35000000  0.15000000       0.024
   0.45000000  0.35000000  0.15000000       0.048
   0.45000000  0.45000000  0.15000000       0.024
   0.25000000  0.25000000  0.25000000       0.008
   0.35000000  0.25000000  0.25000000       0.024
   0.45000000  0.25000000  0.25000000       0.024
   0.35000000  0.35000000  0.25000000       0.024
   0.45000000  0.35000000  0.25000000       0.048
   0.45000000  0.45000000  0.25000000       0.024
   0.35000000  0.35000000  0.35000000       0.008
   0.45000000  0.35000000  0.35000000       0.024
   0.45000000  0.45000000  0.35000000       0.024
   0.45000000  0.45000000  0.45000000       0.008
 
 position of ions in fractional coordinates (direct lattice) 
   0.00000000  0.00000000  0.00000000
   0.00000000  0.50000000  0.50000000
   0.50000000  0.00000000  0.50000000
   0.50000000  0.50000000  0.00000000
 
 position of ions in cartesian coordinates  (Angst):
   0.00000000  0.00000000  0.00000000
   0.00000000  2.10000000  2.10000000
   2.10000000  0.00000000  2.10000000
   2.10000000  2.10000000  0.00000000
 


--------------------------------------------------------------------------------------------------------


 k-point  1 :   0.0500 0.0500 0.0500  plane waves:     625
 k-point  2 :   0.1500 0.0500 0.0500  plane waves:     632
 k-point  3 :   0.2500 0.0500 0.0500  plane waves:     640
 k-point  4 :   0.3500 0.0500 0.0500  plane waves:     626
 k-point  5 :   0.4500 0.0500 0.0500  plane waves:     623
 k-point  6 :   0.1500 0.1500 0.0500  plane waves:     639
 k-point  7 :   0.2500 0.1500 0.0500  plane waves:     636
 k-point  8 :   0.3500 0.1500 0.0500  plane waves:     631
 k-point  9 :   0.4500 0.1500 0.0500  plane waves:     624
 k-point 10 :   0.2500 0.2500 0.0500  plane waves:     627
 k-point 11 :   0.3500 0.2500 0.0500  plane waves:     628
 k-point 12 :   0.4500 0.2500 0.0500  plane waves:     621
 k-point 13 :   0.3500 0.3500 0.0500  plane waves:     625
 k-point 14 :   0.4500 0.3500 0.0500  plane waves:     623
 k-point 15 :   0.4500 0.4500 0.0500  plane waves:     627
 k-point 16 :   0.1500 0.1500 0.1500  plane waves:     639
 k-point 17 :   0.2500 0.1500 0.1500  plane waves:     628
 k-point 18 :   0.3500 0.1500 0.1500  plane waves:     627
 k-point 19 :   0.4500 0.1500 0.1500  plane waves:     629
 k-point 20 :   0.2500 0.2500 0.1500  plane waves:     629
 k-point 21 :   0.3500 0.2500 0.1500  plane waves:     623
 k-point 22 :   0.4500 0.2500 0.1500  plane waves:     622
 k-point 23 :   0.3500 0.3500 0.1500  plane waves:     622
 k-point 24 :   0.4500 0.3500 0.1500  plane waves:     622
 k-point 25 :   0.4500 0.4500 0.1500  plane waves:     628
 k-point 26 :   0.2500 0.2500 0.2500  plane waves:     630
 k-point 27 :   0.3500 0.2500 0.2500  plane waves:     623
 k-point 28 :   0.4500 0.2500 0.2500  plane waves:     628
 k-point 29 :   0.3500 0.3500 0.2500  plane waves:     626
 k-point 30 :   0.4500 0.3500 0.2500  plane waves:     627
 k-point 31 :   0.4500 0.4500 0.2500  plane waves:     629
 k-point 32 :   0.3500 0.3500 0.3500  plane waves:     627
 k-point 33 :   0.4500 0.3500 0.3500  plane waves:     632
 k-point 34 :   0.4500 0.4500 0.3500  plane waves:     634
 k-point 35 :   0.4500 0.4500 0.4500  plane waves:     630

 maximum and minimum number of plane-waves per node :       640      621

 maximum number of plane-waves:       640
 maximum index in each direction: 
   IXMAX=    5   IYMAX=    5   IZMAX=    5
   IXMIN=   -5   IYMIN=   -5   IZMIN=   -5

 WARNING: aliasing errors must be expected set NGX to  22 to avoid them
 WARNING: aliasing errors must be expected set NGY to  22 to avoid them
 WARNING: aliasing errors must be expected set NGZ to  22 to avoid them
 aliasing errors are usually negligible using standard VASP settings
 and one can safely disregard these warnings

 serial   3D FFT for wavefunctions
 parallel 3D FFT for charge:
    minimum data exchange during FFTs selected (reduces bandwidth)


 total amount of memory used by VASP on root node    35936. kBytes
========================================================================

   base      :      30000. kBytes
   nonl-proj :       1474. kBytes
   fftplans  :       1128. kBytes
   grid      :       1441. kBytes
   one-center:         12. kBytes
   wavefun   :       1881. kBytes
 
 Broyden mixing: mesh for mixing (old mesh)
   NGX = 11   NGY = 11   NGZ = 11
  (NGX  = 32   NGY  = 32   NGZ  = 32)
  gives a total of   1331 points

 charge density for first step will be calculated from the start-wavefunctions


--------------------------------------------------------------------------------------------------------


 Maximum index for augmentation-charges         1031 (set IRDMAX)


--------------------------------------------------------------------------------------------------------


 initial charge from wavefunction
 First call to EWALD:  gamma=   0.422
 Maximum number of real-space cells 3x 3x 3
 Maximum number of reciprocal cells 3x 3x 3

 FEWALD executed in parallel
    FEWALD:  cpu time    0.00: real time    0.00


----------------------------------------- Iteration    1(   1)  ---------------------------------------


    POTLOK:  cpu time    0.04: real time    0.05
    SETDIJ:  cpu time    0.01: real time    0.01
     EDDAV:  cpu time    0.53: real time    0.54
       DOS:  cpu time    0.00: real time    0.00
    CHARGE:  cpu time    0.03: real time    0.03
    MIXING:  cpu time    0.00: real time    0.00
    --------------------------------------------
      LOOP:  cpu time    0.62: real time    0.63

 eigenvalue-minimisations  :   774
 total energy-change (2. order) :-0.1460233E+02  (-0.3171173E-01)
 number of electron      12.0000004 magnetization 
 augmentation part       -0.1725390 magnetization 

 Broyden mixing:
  rms(total) = 0.25401E-01    rms(broyden)= 0.25400E-01
  rms(prec ) = 0.61995E-01
  weight for this iteration     100.00

 Free energy of the ion-electron system (eV)
  ---------------------------------------------------
  alpha Z        PSCENC =        -0.54991397
  Ewald energy   TEWEN  =      -282.94730896
  -1/2 Hartree   DENC   =        -0.39851234
  -exchange  EXHF       =         0.00000000
  -V(xc)+E(xc)   XCENC  =      -105.98942708
  PAW double counting   =       141.64110296      -13.41371512
  entropy T*S    EENTRO =        -0.00047357
  eigenvalues    EBANDS =        32.30389127
  atomic energy  EATOM  =       214.75202816
  ---------------------------------------------------
  free energy    TOTEN  =       -14.60232865 eV

  energy without entropy =      -14.60185508  energy(sigma->0) =      -14.60217079


--------------------------------------------------------------------------------------------------------




----------------------------------------- Iteration    1(   2)  ---------------------------------------


    POTLOK:  cpu time    0.05: real time    0.05
    SETDIJ:  cpu time    0.01: real time    0.01
     EDDAV:  cpu time    0.54: real time    0.55
       DOS:  cpu time    0.00: real time    0.00
    CHARGE:  cpu time    0.03: real time    0.03
    MIXING:  cpu time    0.00: real time    0.00
    --------------------------------------------
      LOOP:  cpu time    0.63: real time    0.65

 eigenvalue-minimisations  :   802
 total energy-change (2. order) : 0.1219616E-02  (-0.2387036E-03)
 number of electron      12.0000004 magnetization 
 augmentation part       -0.1709304 magnetization 

 Broyden mixing:
  rms(total) = 0.15596E-01    rms(broyden)= 0.15596E-01
  rms(prec ) = 0.38268E-01
  weight for this iteration     100.00

 eigenvalues of (default mixing * dielectric matrix)
  average eigenvalue GAMMA=   2.5548
  2.5548

 Free energy of the ion-electron system (eV)
  ---------------------------------------------------
  alpha Z        PSCENC =        -0.54991397
  Ewald energy   TEWEN  =      -282.94730896
  -1/2 Hartree   DENC   =        -0.40508033
  -exchange  EXHF       =         0.00000000
  -V(xc)+E(xc)   XCENC  =      -106.00730039
  PAW double counting   =       141.96882471      -13.75788130
  entropy T*S    EENTRO =        -0.00047030
  eigenvalues    EBANDS =        32.34599334
  atomic energy  EATOM  =       214.75202816
  ---------------------------------------------------
  free energy    TOTEN  =       -14.60110903 eV

  energy without entropy =      -14.60063873  energy(sigma->0) =      -14.60095226


--------------------------------------------------------------------------------------------------------




----------------------------------------- Iteration    1(   3)  ---------------------------------------


    POTLOK:  cpu time    0.04: real time    0.05
    SETDIJ:  cpu time    0.01: real time    0.01
     EDDAV:  cpu time    0.52: real time    0.53
       DOS:  cpu time    0.00: real time    0.00
    CHARGE:  cpu time    0.04: real time    0.04
    MIXING:  cpu time    0.00: real time    0.00
    --------------------------------------------
      LOOP:  cpu time    0.62: real time    0.63

 eigenvalue-minimisations  :   736
 total energy-change (2. order) : 0.8001697E-03  (-0.8999887E-04)
 number of electron      12.0000004 magnetization 
 augmentation part       -0.1700212 magnetization 

 Broyden mixing:
  rms(total) = 0.71571E-03    rms(broyden)= 0.71567E-03
  rms(prec ) = 0.10533E-02
  weight for this iteration     100.00

 eigenvalues of (default mixing * dielectric matrix)
  average eigenvalue GAMMA=   1.8305
  1.1070  2.5540

 Free energy of the ion-electron system (eV)
  ---------------------------------------------------
  alpha Z        PSCENC =        -0.54991397
  Ewald energy   TEWEN  =      -282.94730896
  -1/2 Hartree   DENC   =        -0.41942534
  -exchange  EXHF       =         0.00000000
  -V(xc)+E(xc)   XCENC  =      -106.03403156
  PAW double counting   =       142.50915992      -14.32312430
  entropy T*S    EENTRO =        -0.00046566
  eigenvalues    EBANDS =        32.41277284
  atomic energy  EATOM  =       214.75202816
  ---------------------------------------------------
  free energy    TOTEN  =       -14.60030886 eV

  energy without entropy =      -14.59984320  energy(sigma->0) =      -14.60015364


--------------------------------------------------------------------------------------------------------




----------------------------------------- Iteration    1(   4)  ---------------------------------------


    POTLOK:  cpu time    0.04: real time    0.04
    SETDIJ:  cpu time    0.01: real time    0.01
     EDDAV:  cpu time    0.49: real time    0.50
       DOS:  cpu time    0.00: real time    0.00
    CHARGE:  cpu time    0.03: real time    0.03
    MIXING:  cpu time    0.00: real time    0.00
    --------------------------------------------
      LOOP:  cpu time    0.58: real time    0.59

 eigenvalue-minimisations  :   800
 total energy-change (2. order) : 0.4643301E-05  (-0.4389352E-06)
 number of electron      12.0000004 magnetization 
 augmentation part       -0.1699994 magnetization 

 Broyden mixing:
  rms(total) = 0.42644E-03    rms(broyden)= 0.42643E-03
  rms(prec ) = 0.65605E-03
  weight for this iteration     100.00

 eigenvalues of (default mixing * dielectric matrix)
  average eigenvalue GAMMA=   2.0755
  0.9967  2.7467  2.4833

 Free energy of the ion-electron system (eV)
  ---------------------------------------------------
  alpha Z        PSCENC =        -0.54991397
  Ewald energy   TEWEN  =      -282.94730896
  -1/2 Hartree   DENC   =        -0.41893750
  -exchange  EXHF       =         0.00000000
  -V(xc)+E(xc)   XCENC  =      -106.03436648
  PAW double counting   =       142.48402651      -14.29661801
  entropy T*S    EENTRO =        -0.00046566
  eigenvalues    EBANDS =        32.41125170
  atomic energy  EATOM  =       214.75202816
  ---------------------------------------------------
  free energy    TOTEN  =       -14.60030422 eV

  energy without entropy =      -14.59983855  energy(sigma->0) =      -14.60014900


--------------------------------------------------------------------------------------------------------




----------------------------------------- Iteration    1(   5)  ---------------------------------------


    POTLOK:  cpu time    0.04: real time    0.04
    SETDIJ:  cpu time    0.01: real time    0.01
     EDDAV:  cpu time    0.30: real time    0.31
       DOS:  cpu time    0.00: real time    0.00
    CHARGE:  cpu time    0.03: real time    0.03
    MIXING:  cpu time    0.00: real time    0.00
    --------------------------------------------
      LOOP:  cpu time    0.38: real time    0.39

 eigenvalue-minimisations  :   370
 total energy-change (2. order) : 0.5158712E-05  (-0.2689869E-07)
 number of electron      12.0000004 magnetization 
 augmentation part       -0.1699915 magnetization 

 Broyden mixing:
  rms(total) = 0.23806E-04    rms(broyden)= 0.23792E-04
  rms(prec ) = 0.34473E-04
  weight for this iteration     100.00

 eigenvalues of (default mixing * dielectric matrix)
  average eigenvalue GAMMA=   1.8469
  2.7142  2.4761  0.9928  1.2045

 Free energy of the ion-electron system (eV)
  ---------------------------------------------------
  alpha Z        PSCENC =        -0.54991397
  Ewald energy   TEWEN  =      -282.94730896
  -1/2 Hartree   DENC   =        -0.41827316
  -exchange  EXHF       =         0.00000000
  -V(xc)+E(xc)   XCENC  =      -106.03525996
  PAW double counting   =       142.45097729      -14.26164006
  entropy T*S    EENTRO =        -0.00046562
  eigenvalues    EBANDS =        32.40955723
  atomic energy  EATOM  =       214.75202816
  ---------------------------------------------------
  free energy    TOTEN  =       -14.60029906 eV

  energy without entropy =      -14.59983344  energy(sigma->0) =      -14.60014385


--------------------------------------------------------------------------------------------------------




----------------------------------------- Iteration    1(   6)  ---------------------------------------


    POTLOK:  cpu time    0.04: real time    0.04
    SETDIJ:  cpu time    0.01: real time    0.01
     EDDAV:  cpu time    0.31: real time    0.32
       DOS:  cpu time    0.00: real time    0.00
    --------------------------------------------
      LOOP:  cpu time    0.36: real time    0.37

 eigenvalue-minimisations  :   364
 total energy-change (2. order) :-0.2184570E-06  (-0.2520027E-08)
 number of electron      12.0000004 magnetization 
 augmentation part       -0.1699915 magnetization 

 Free energy of the ion-electron system (eV)
  ---------------------------------------------------
  alpha Z        PSCENC =        -0.54991397
  Ewald energy   TEWEN  =      -282.94730896
  -1/2 Hartree   DENC   =        -0.41828413
  -exchange  EXHF       =         0.00000000
  -V(xc)+E(xc)   XCENC  =      -106.03522902
  PAW double counting   =       142.45296791      -14.26373852
  entropy T*S    EENTRO =        -0.00046562
  eigenvalues    EBANDS =        32.40964488
  atomic energy  EATOM  =       214.75202816
  ---------------------------------------------------
  free energy    TOTEN  =       -14.60029928 eV

  energy without entropy =      -14.59983366  energy(sigma->0) =      -14.60014407


--------------------------------------------------------------------------------------------------------




 average (electrostatic) potential at core
  the test charge radii are     1.0406
  (the norm of the test charge is              1.0000)
       1 -73.5136       2 -73.5136       3 -73.5136       4 -73.5136
 
 
 
 E-fermi :   6.8398     XC(G=0):  -9.7952     alpha+bet :-13.2487


 k-point   1 :       0.0500    0.0500    0.0500
  band No.  band energies     occupation 
      1      -3.4747      2.00000
      2       3.7913      2.00000
      3       3.7913      2.00000
      4       3.7913      2.00000
      5       5.7126      2.00000
      6       5.7126      2.00000
      7       5.7126      2.00000
      8      10.7601      0.00000
      9      10.7601      0.00000
     10      10.7601      0.00000

 k-point   2 :       0.1500    0.0500    0.0500
  band No.  band energies     occupation 
      1      -3.3070      2.00000
      2       2.4313      2.00000
      3       3.9495      2.00000
      4       3.9495      2.00000
      5       5.8742      2.00000
      6       5.8742      2.00000
      7       7.3653     -0.00128
      8       9.4282      0.00000
      9       9.4282      0.00000
     10      10.9140      0.00000

 k-point   3 :       0.2500    0.0500    0.0500
  band No.  band energies     occupation 
      1      -2.9724      2.00000
      2       1.1475      2.00000
      3       4.2657      2.00000
      4       4.2657      2.00000
      5       6.1971      2.00005
      6       6.1971      2.00005
      7       8.1918      0.00000
      8       8.1918      0.00000
      9       9.2377      0.00000
     10      10.0875      0.00000

 k-point   4 :       0.3500    0.0500    0.0500
  band No.  band energies     occupation 
      1      -2.4717      2.00000
      2       0.0070      2.00000
      3       4.7395      2.00000
      4       4.7395      2.00000
      5       6.6798      1.98011
      6       6.6798      1.98011
      7       7.0992     -0.06946
      8       7.0992     -0.06946
      9       9.0375      0.00000
     10       9.0375      0.00000

 k-point   5 :       0.4500    0.0500    0.0500
  band No.  band energies     occupation 
      1      -1.8067      2.00000
      2      -0.9794      2.00000
      3       5.3708      2.00000
      4       5.3708      2.00000
      5       6.1576      2.00002
      6       6.1576      2.00002
      7       7.3176     -0.00375
      8       7.3176     -0.00375
      9       8.1081      0.00000
     10       8.1081      0.00000

 k-point   6 :       0.1500    0.1500    0.0500
  band No.  band energies     occupation 
      1      -3.1396      2.00000
      2       2.5924      2.00000
      3       2.5924      2.00000
      4       4.1075      2.00000
      5       6.0354      2.00000
      6       7.5243     -0.00001
      7       7.5243     -0.00001
      8       8.1234      0.00000
      9       9.5838      0.00000
     10       9.5838      0.00000

 k-point   7 :       0.2500    0.1500    0.0500
  band No.  band energies     occupation 
      1      -2.8053      2.00000
      2       1.3101      2.00000
      3       2.9144      2.00000
      4       4.4235      2.00000
      5       6.3581      2.00346
      6       6.8864      0.61737
      7       7.8412      0.00000
      8       8.3485      0.00000
      9       9.3936      0.00000
     10       9.8946      0.00000

 k-point   8 :       0.3500    0.1500    0.0500
  band No.  band energies     occupation 
      1      -2.3053      2.00000
      2       0.1708      2.00000
      3       3.3961      2.00000
      4       4.8971      2.00000
      5       5.7857      2.00000
      6       6.8402      0.99673
      7       7.2558     -0.01224
      8       8.3142      0.00000
      9       9.1938      0.00000
     10      10.3595      0.00000

 k-point   9 :       0.4500    0.1500    0.0500
  band No.  band energies     occupation 
      1      -1.6409      2.00000
      2      -0.8145      2.00000
      3       4.0363      2.00000
      4       4.8344      2.00000
      5       5.5283      2.00000
      6       6.3147      2.00130
      7       7.4773     -0.00006
      8       8.2643      0.00000
      9       8.9411      0.00000
     10       9.7129      0.00000

 k-point  10 :       0.2500    0.2500    0.0500
  band No.  band energies     occupation 
      1      -2.4718      2.00000
      2       1.6350      2.00000
      3       1.6350      2.00000
      4       4.7393      2.00000
      5       5.6404      2.00000
      6       6.6801      1.97927
      7       8.6611      0.00000
      8       8.6611      0.00000
      9       9.7056      0.00000
     10       9.7056      0.00000

 k-point  11 :       0.3500    0.2500    0.0500
  band No.  band energies     occupation 
      1      -1.9729      2.00000
      2       0.4981      2.00000
      3       2.1210      2.00000
      4       4.5314      2.00000
      5       5.2129      2.00000
      6       7.1599     -0.04606
      7       7.5693      0.00000
      8       9.1290      0.00000
      9       9.5037      0.00000
     10      10.1697      0.00000

 k-point  12 :       0.4500    0.2500    0.0500
  band No.  band energies     occupation 
      1      -1.3098      2.00000
      2      -0.4852      2.00000
      3       2.7674      2.00000
      4       3.5716      2.00000
      5       5.8431      2.00000
      6       6.6292      2.05957
      7       7.7949      0.00000
      8       8.5795      0.00000
      9       9.7513      0.00000
     10      10.5268      0.00000

 k-point  13 :       0.3500    0.3500    0.0500
  band No.  band energies     occupation 
      1      -1.4752      2.00000
      2       0.9878      2.00000
      3       0.9878      2.00000
      4       3.4142      2.00000
      5       5.6858      2.00000
      6       7.6373      0.00000
      7       8.0392      0.00000
      8       8.0392      0.00000
      9       9.9686      0.00000
     10       9.9686      0.00000

 k-point  14 :       0.4500    0.3500    0.0500
  band No.  band energies     occupation 
      1      -0.8144      2.00000
      2       0.0076      2.00000
      3       1.6384      2.00000
      4       2.4480      2.00000
      5       6.3150      2.00131
      6       7.1001     -0.06928
      7       8.2689      0.00000
      8       8.6646      0.00000
      9       9.0494      0.00000
     10       9.4434      0.00000

 k-point  15 :       0.4500    0.4500    0.0500
  band No.  band energies     occupation 
      1      -0.1563      2.00000
      2       0.6623      2.00000
      3       0.6623      2.00000
      4       1.4767      2.00000
      5       6.9433      0.24100
      6       7.7273      0.00000
      7       7.7273      0.00000
      8       8.5092      0.00000
      9       8.8961      0.00000
     10       9.6708      0.00000

 k-point  16 :       0.1500    0.1500    0.1500
  band No.  band energies     occupation 
      1      -2.9724      2.00000
      2       2.7533      2.00000
      3       2.7533      2.00000
      4       2.7533      2.00000
      5       7.6828      0.00000
      6       7.6828      0.00000
      7       7.6828      0.00000
      8       8.2802      0.00000
      9       8.2802      0.00000
     10       8.2802      0.00000

 k-point  17 :       0.2500    0.1500    0.1500
  band No.  band energies     occupation 
      1      -2.6384      2.00000
      2       1.4726      2.00000
      3       3.0753      2.00000
      4       3.0753      2.00000
      5       7.0435     -0.05387
      6       7.0435     -0.05387
      7       8.0004      0.00000
      8       8.0004      0.00000
      9       8.5929      0.00000
     10       9.5502      0.00000

 k-point  18 :       0.3500    0.1500    0.1500
  band No.  band energies     occupation 
      1      -2.1390      2.00000
      2       0.3345      2.00000
      3       3.5565      2.00000
      4       3.5565      2.00000
      5       5.9443      2.00000
      6       5.9443      2.00000
      7       8.4723      0.00000
      8       8.4723      0.00000
      9       9.0615      0.00000
     10      10.7708      0.00000

 k-point  19 :       0.4500    0.1500    0.1500
  band No.  band energies     occupation 
      1      -1.4754      2.00000
      2      -0.6497      2.00000
      3       4.1960      2.00000
      4       4.1960      2.00000
      5       4.9936      2.00000
      6       4.9936      2.00000
      7       9.0965      0.00000
      8       9.0965      0.00000
      9       9.6841      0.00000
     10       9.8683      0.00000

 k-point  20 :       0.2500    0.2500    0.1500
  band No.  band energies     occupation 
      1      -2.3053      2.00000
      2       1.7971      2.00000
      3       1.7971      2.00000
      4       3.3962      2.00000
      5       5.7990      2.00000
      6       7.3587     -0.00150
      7       7.3587     -0.00150
      8       8.3156      0.00000
      9       9.8613      0.00000
     10       9.8613      0.00000

 k-point  21 :       0.3500    0.2500    0.1500
  band No.  band energies     occupation 
      1      -1.8068      2.00000
      2       0.6614      2.00000
      3       2.2827      2.00000
      4       3.8762      2.00000
      5       4.6911      2.00000
      6       6.2607      2.00033
      7       7.8305      0.00000
      8       8.7863      0.00000
      9      10.1667      0.00000
     10      10.3242      0.00000

 k-point  22 :       0.4500    0.2500    0.1500
  band No.  band energies     occupation 
      1      -1.1445      2.00000
      2      -0.3208      2.00000
      3       2.9283      2.00000
      4       3.7314      2.00000
      5       4.5164      2.00000
      6       5.3115      2.00000
      7       8.4572      0.00000
      8       9.2372      0.00000
      9       9.4087      0.00000
     10      10.1772      0.00000

 k-point  23 :       0.3500    0.3500    0.1500
  band No.  band energies     occupation 
      1      -1.3098      2.00000
      2       1.1506      2.00000
      3       1.1506      2.00000
      4       3.5741      2.00000
      5       4.3568      2.00000
      6       6.7348      1.76667
      7       6.7348      1.76667
      8       9.0857      0.00000
      9       9.2549      0.00000
     10      11.5331      0.00000

 k-point  24 :       0.4500    0.3500    0.1500
  band No.  band energies     occupation 
      1      -0.6497      2.00000
      2       0.1715      2.00000
      3       1.8006      2.00000
      4       2.6093      2.00000
      5       4.9939      2.00000
      6       5.7878      2.00000
      7       7.3654     -0.00128
      8       8.1498      0.00000
      9       9.8749      0.00000
     10      10.6393      0.00000

 k-point  25 :       0.4500    0.4500    0.1500
  band No.  band energies     occupation 
      1       0.0077      2.00000
      2       0.8254      2.00000
      3       0.8254      2.00000
      4       1.6390      2.00000
      5       5.6296      2.00000
      6       6.4208      2.01163
      7       6.4208      2.01163
      8       7.2091     -0.02540
      9      10.4905      0.00000
     10      11.2496      0.00000

 k-point  26 :       0.2500    0.2500    0.2500
  band No.  band energies     occupation 
      1      -1.9729      2.00000
      2       2.1209      2.00000
      3       2.1209      2.00000
      4       2.1209      2.00000
      5       6.1159      2.00000
      6       6.1159      2.00000
      7       6.1159      2.00000
      8      10.0244      0.00000
      9      10.1710      0.00000
     10      10.1710      0.00000

 k-point  27 :       0.3500    0.2500    0.2500
  band No.  band energies     occupation 
      1      -1.4753      2.00000
      2       0.9876      2.00000
      3       2.6055      2.00000
      4       2.6055      2.00000
      5       5.0098      2.00000
      6       5.0098      2.00000
      7       6.5913      2.07082
      8       8.9441      0.00000
      9      10.6328      0.00000
     10      10.6328      0.00000

 k-point  28 :       0.4500    0.2500    0.2500
  band No.  band energies     occupation 
      1      -0.8146      2.00000
      2       0.0075      2.00000
      3       3.2491      2.00000
      4       3.2491      2.00000
      5       4.0542      2.00000
      6       4.0542      2.00000
      7       7.2221     -0.02104
      8       8.0076      0.00000
      9      11.2395      0.00000
     10      11.2395      0.00000

 k-point  29 :       0.3500    0.3500    0.2500
  band No.  band energies     occupation 
      1      -0.9795      2.00000
      2       1.4757      2.00000
      3       1.4757      2.00000
      4       3.0882      2.00000
      5       3.8977      2.00000
      6       5.4872      2.00000
      7       5.4872      2.00000
      8       7.8548      0.00000
      9      11.0915      0.00000
     10      12.6130      0.00000

 k-point  30 :       0.4500    0.3500    0.2500
  band No.  band energies     occupation 
      1      -0.3208      2.00000
      2       0.4987      2.00000
      3       2.1242      2.00000
      4       2.9302      2.00000
      5       3.7344      2.00000
      6       4.5335      2.00000
      7       6.1224      2.00000
      8       6.9126      0.42638
      9      11.6960      0.00000
     10      12.4323      0.00000

 k-point  31 :       0.4500    0.4500    0.2500
  band No.  band energies     occupation 
      1       0.3352      2.00000
      2       1.1512      2.00000
      3       1.1512      2.00000
      4       1.9629      2.00000
      5       4.3736      2.00000
      6       5.1714      2.00000
      7       5.1714      2.00000
      8       5.9655      2.00000
      9      12.2967      0.00000
     10      13.0284      0.00000

 k-point  32 :       0.3500    0.3500    0.3500
  band No.  band energies     occupation 
      1      -0.4853      2.00000
      2       1.9621      2.00000
      3       1.9621      2.00000
      4       1.9621      2.00000
      5       4.3772      2.00000
      6       4.3772      2.00000
      7       4.3772      2.00000
      8       6.7591      1.62532
      9      13.0582      0.00000
     10      13.0582      0.00000

 k-point  33 :       0.4500    0.3500    0.3500
  band No.  band energies     occupation 
      1       0.1713      2.00000
      2       0.9881      2.00000
      3       2.6070      2.00000
      4       2.6070      2.00000
      5       3.4183      2.00000
      6       3.4183      2.00000
      7       5.0153      2.00000
      8       5.8109      2.00000
      9      13.6323      0.00000
     10      13.6323      0.00000

 k-point  34 :       0.4500    0.4500    0.3500
  band No.  band energies     occupation 
      1       0.8251      2.00000
      2       1.6384      2.00000
      3       1.6384      2.00000
      4       2.4459      2.00000
      5       3.2581      2.00000
      6       4.0583      2.00000
      7       4.0583      2.00000
      8       4.8576      2.00000
      9      14.2069      0.00000
     10      14.8575      0.00000

 k-point  35 :       0.4500    0.4500    0.4500
  band No.  band energies     occupation 
      1       1.4759      2.00000
      2       2.2838      2.00000
      3       2.2838      2.00000
      4       2.2838      2.00000
      5       3.0987      2.00000
      6       3.0987      2.00000
      7       3.0987      2.00000
      8       3.8992      2.00000
      9      16.0910      0.00000
     10      16.0910      0.00000


--------------------------------------------------------------------------------------------------------


 soft charge-density along one line, spin component           1
         0         1         2         3         4         5         6         7         8         9
 total charge-density along one line
 
 pseudopotential strength for first ion, spin component:           1
  8.583   0.000  -0.004   0.000   0.000   0.000   0.000   0.000   0.000   0.000   0.000   0.000   0.000   0.000   0.000   0.000
 -0.004   0.000   0.000   0.000   0.000   0.000   0.000   0.000   0.000   0.000   0.000   0.000   0.000   0.000   0.000   0.000
  0.000   0.000   0.000   0.000   2.011   0.000   0.000   0.000   0.000   0.000  -0.023   0.000   0.000   0.000   0.000   0.000
  0.000   0.000   0.000   0.000   0.000   0.000   2.011   0.000   0.000   0.000   0.000   0.000  -0.023   0.000   0.000   0.000
  0.000   0.000   0.000   0.000   0.000   0.000   0.000   0.000   2.011   0.000   0.000   0.000   0.000   0.000  -0.023   0.000
  0.000   0.000   0.000   0.000  -0.023   0.000   0.000   0.000   0.000   0.000  -0.012   0.000   0.000   0.000   0.000   0.000
  0.000   0.000   0.000   0.000   0.000   0.000  -0.023   0.000   0.000   0.000   0.000   0.000  -0.012   0.000   0.000   0.000
  0.000   0.000   0.000   0.000   0.000   0.000   0.000   0.000  -0.023   0.000   0.000   0.000   0.000   0.000  -0.012   0.000
 total augmentation occupancy for first ion, spin component:           1
  1.387  -0.533   0.000   0.000   0.000   0.000   0.000   0.000
 -0.533   0.484   0.000   0.000   0.000   0.000   0.000   0.000
  0.000   0.000   0.639   0.000   0.000  -0.178   0.000   0.000
  0.000   0.000   0.000   0.639   0.000   0.000  -0.178   0.000
  0.000   0.000   0.000   0.000   0.639   0.000   0.000  -0.178
  0.000   0.000  -0.178   0.000   0.000   0.054   0.000   0.000
  0.000   0.000   0.000  -0.178   0.000   0.000   0.054   0.000
  0.000   0.000   0.000   0.000  -0.178   0.000   0.000   0.054


------------------------ aborting loop because EDIFF is reached ----------------------------------------


    CHARGE:  cpu time    0.03: real time    0.03
    FORLOC:  cpu time    0.00: real time    0.00
    FORNL :  cpu time    0.06: real time    0.06
    STRESS:  cpu time    0.29: real time    0.29
    FORCOR:  cpu time    0.05: real time    0.05
    FORHAR:  cpu time    0.01: real time    0.01
    MIXING:  cpu time    0.00: real time    0.00
    FORVDW:  cpu time    0.00: real time    0.00

  FORCE on cell =-STRESS in cart. coord.  units (eV):
  Direction    XX          YY          ZZ          XY          YZ          ZX
  --------------------------------------------------------------------------------------
  Alpha Z    -0.54991    -0.54991    -0.54991
  Ewald     -94.31581   -94.31581   -94.31581     0.00000     0.00000     0.00000
  Hartree     0.13942     0.13942     0.13942     0.00000     0.00000     0.00000
  E(xc)     -33.49169   -33.49169   -33.49169     0.00000     0.00000     0.00000
  Local      -1.33144    -1.33144    -1.33144     0.00000     0.00000     0.00000
  n-local    74.48078    74.95877    76.26995     0.01675     0.44967     0.17317
  augment    -4.45656    -4.45656    -4.45656     0.00000     0.00000     0.00000
  Kinetic    52.64437    55.35849    59.64213     0.98303    -7.82907    -2.17358
  Fock        0.00000     0.00000     0.00000     0.00000     0.00000     0.00000
  -------------------------------------------------------------------------------------
  Total      -2.88783    -2.88783    -2.88783     0.00000     0.00000     0.00000
  in kB     -62.45019   -62.45019   -62.45019     0.00000     0.00000     0.00000
  external pressure =      -62.45 kB  Pullay stress =        0.00 kB


 VOLUME and BASIS-vectors are now :
 -----------------------------------------------------------------------------
  energy-cutoff  :      240.44
  volume of cell :       74.09
      direct lattice vectors                 reciprocal lattice vectors
     4.200000000  0.000000000  0.000000000     0.238095238  0.000000000  0.000000000
     0.000000000  4.200000000  0.000000000     0.000000000  0.238095238  0.000000000
     0.000000000  0.000000000  4.200000000     0.000000000  0.000000000  0.238095238

  length of vectors
     4.200000000  4.200000000  4.200000000     0.238095238  0.238095238  0.238095238


 FORCES acting on ions
    electron-ion (+dipol)            ewald-force                    non-local-force                 convergence-correction
 -----------------------------------------------------------------------------------------------
   -.188E-14 -.646E-15 -.222E-14   -.505E-15 -.349E-15 -.150E-16   0.000E+00 0.620E-24 0.000E+00   0.396E-18 -.456E-17 -.205E-17
   -.620E-15 -.162E-14 -.311E-14   -.513E-15 0.386E-16 0.289E-15   -.210E-24 0.000E+00 0.000E+00   -.141E-17 -.386E-17 -.980E-18
   -.178E-14 0.125E-14 -.435E-14   0.508E-15 0.128E-16 0.300E-15   -.103E-24 0.000E+00 0.000E+00   0.221E-17 0.209E-17 0.163E-17
   -.165E-14 -.438E-15 -.171E-14   0.500E-15 0.400E-15 -.637E-15   -.103E-24 0.620E-24 0.000E+00   0.435E-18 0.221E-17 0.373E-18
 -----------------------------------------------------------------------------------------------
   -.592E-14 -.145E-14 -.114E-13   -.100E-16 0.103E-15 -.633E-16   -.417E-24 0.124E-23 0.000E+00   0.162E-17 -.412E-17 -.103E-17
 
 
 POSITION                                       TOTAL-FORCE (eV/Angst)
 -----------------------------------------------------------------------------------
      0.00000      0.00000      0.00000         0.000000      0.000000      0.000000
      0.00000      2.10000      2.10000         0.000000      0.000000      0.000000
      2.10000      0.00000      2.10000         0.000000      0.000000      0.000000
      2.10000      2.10000      0.00000         0.000000      0.000000      0.000000
 -----------------------------------------------------------------------------------
    total drift:                                0.000000      0.000000      0.000000


--------------------------------------------------------------------------------------------------------



  FREE ENERGIE OF THE ION-ELECTRON SYSTEM (eV)
  ---------------------------------------------------
  free  energy   TOTEN  =       -14.60029928 eV

  energy  without entropy=      -14.59983366  energy(sigma->0) =      -14.60014407
 


--------------------------------------------------------------------------------------------------------


    POTLOK:  cpu time    0.05: real time    0.05


--------------------------------------------------------------------------------------------------------


 writing wavefunctions
     LOOP+:  cpu time    3.85: real time    3.95
    4ORBIT:  cpu time    0.00: real time    0.00

 ----------------------------------------------------------------------------- 
|                                                                             |
|           W    W    AA    RRRRR   N    N  II  N    N   GGGG   !!!           |
|           W    W   A  A   R    R  NN   N  II  NN   N  G    G  !!!           |
|           W    W  A    A  R    R  N N  N  II  N N  N  G       !!!           |
|           W WW W  AAAAAA  RRRRR   N  N N  II  N  N N  G  GGG   !            |
|           WW  WW  A    A  R   R   N   NN  II  N   NN  G    G                |
|           W    W  A    A  R    R  N    N  II  N    N   GGGG   !!!           |
|                                                                             |
|      The partial DOS and the PROCAR file are not evaluated for NPAR/=1      |
|      please rerun with NPAR=1                                               |
|                                                                             |
 ----------------------------------------------------------------------------- 


 total amount of memory used by VASP on root node    35936. kBytes
========================================================================

   base      :      30000. kBytes
   nonl-proj :       1474. kBytes
   fftplans  :       1128. kBytes
   grid      :       1441. kBytes
   one-center:         12. kBytes
   wavefun   :       1881. kBytes
 
  
  
 General timing and accounting informations for this job:
 ========================================================
  
                  Total CPU time used (sec):        4.429
                            User time (sec):        4.106
                          System time (sec):        0.323
                         Elapsed time (sec):        4.550
  
                   Maximum memory used (kb):       44228.
                   Average memory used (kb):           0.
  
                          Minor page faults:        14630
                          Major page faults:            0
                 Voluntary context switches:          902
