<?xml version="1.0" encoding="ISO-8859-1"?>
<modeling>
 <generator>
  <i name="program" type="string">vasp </i>
  <i name="version" type="string">5.3.2  </i>
  <i name="subversion" type="string">13Sep12 (build Jun 30 2016 14:08:18) complex                          parallel </i>
  <i name="platform" type="string">LinuxIFC </i>
  <i name="date" type="string">2017 10 16 </i>
  <i name="time" type="string">16:02:25 </i>
 </generator>
 <incar>
  <i type="string" name="SYSTEM"> bcc Al</i>
  <i type="string" name="PREC">normal</i>
  <i name="EDIFF">      0.00000100</i>
  <v name="RWIGS">      1.40200000</v>
 </incar>
 <kpoints>
  <generation param="Monkhorst-Pack">
   <v type="int" name="divisions">      10       10       10 </v>
   <v name="usershift">      0.00000000       0.00000000       0.00000000 </v>
   <v name="genvec1">      0.10000000       0.00000000       0.00000000 </v>
   <v name="genvec2">      0.00000000       0.10000000       0.00000000 </v>
   <v name="genvec3">      0.00000000       0.00000000       0.10000000 </v>
   <v name="shift">      0.50000000       0.50000000       0.50000000 </v>
  </generation>
  <varray name="kpointlist" >
   <v>       0.05000000       0.05000000       0.05000000 </v>
   <v>       0.15000000       0.05000000       0.05000000 </v>
   <v>       0.25000000       0.05000000       0.05000000 </v>
   <v>       0.35000000       0.05000000       0.05000000 </v>
   <v>       0.45000000       0.05000000       0.05000000 </v>
   <v>       0.15000000       0.15000000       0.05000000 </v>
   <v>       0.25000000       0.15000000       0.05000000 </v>
   <v>       0.35000000       0.15000000       0.05000000 </v>
   <v>       0.45000000       0.15000000       0.05000000 </v>
   <v>       0.25000000       0.25000000       0.05000000 </v>
   <v>       0.35000000       0.25000000       0.05000000 </v>
   <v>       0.45000000       0.25000000       0.05000000 </v>
   <v>       0.35000000       0.35000000       0.05000000 </v>
   <v>       0.45000000       0.35000000       0.05000000 </v>
   <v>       0.45000000       0.45000000       0.05000000 </v>
   <v>       0.15000000       0.15000000       0.15000000 </v>
   <v>       0.25000000       0.15000000       0.15000000 </v>
   <v>       0.35000000       0.15000000       0.15000000 </v>
   <v>       0.45000000       0.15000000       0.15000000 </v>
   <v>       0.25000000       0.25000000       0.15000000 </v>
   <v>       0.35000000       0.25000000       0.15000000 </v>
   <v>       0.45000000       0.25000000       0.15000000 </v>
   <v>       0.35000000       0.35000000       0.15000000 </v>
   <v>       0.45000000       0.35000000       0.15000000 </v>
   <v>       0.45000000       0.45000000       0.15000000 </v>
   <v>       0.25000000       0.25000000       0.25000000 </v>
   <v>       0.35000000       0.25000000       0.25000000 </v>
   <v>       0.45000000       0.25000000       0.25000000 </v>
   <v>       0.35000000       0.35000000       0.25000000 </v>
   <v>       0.45000000       0.35000000       0.25000000 </v>
   <v>       0.45000000       0.45000000       0.25000000 </v>
   <v>       0.35000000       0.35000000       0.35000000 </v>
   <v>       0.45000000       0.35000000       0.35000000 </v>
   <v>       0.45000000       0.45000000       0.35000000 </v>
   <v>       0.45000000       0.45000000       0.45000000 </v>
  </varray>
  <varray name="weights" >
   <v>       0.00800000 </v>
   <v>       0.02400000 </v>
   <v>       0.02400000 </v>
   <v>       0.02400000 </v>
   <v>       0.02400000 </v>
   <v>       0.02400000 </v>
   <v>       0.04800000 </v>
   <v>       0.04800000 </v>
   <v>       0.04800000 </v>
   <v>       0.02400000 </v>
   <v>       0.04800000 </v>
   <v>       0.04800000 </v>
   <v>       0.02400000 </v>
   <v>       0.04800000 </v>
   <v>       0.02400000 </v>
   <v>       0.00800000 </v>
   <v>       0.02400000 </v>
   <v>       0.02400000 </v>
   <v>       0.02400000 </v>
   <v>       0.02400000 </v>
   <v>       0.04800000 </v>
   <v>       0.04800000 </v>
   <v>       0.02400000 </v>
   <v>       0.04800000 </v>
   <v>       0.02400000 </v>
   <v>       0.00800000 </v>
   <v>       0.02400000 </v>
   <v>       0.02400000 </v>
   <v>       0.02400000 </v>
   <v>       0.04800000 </v>
   <v>       0.02400000 </v>
   <v>       0.00800000 </v>
   <v>       0.02400000 </v>
   <v>       0.02400000 </v>
   <v>       0.00800000 </v>
  </varray>
 </kpoints>
 <parameters>
  <separator name="general" >
   <i type="string" name="SYSTEM">bcc Al</i>
   <i type="logical" name="LCOMPAT"> F  </i>
  </separator>
  <separator name="electronic" >
   <i type="string" name="PREC">normal</i>
   <i name="ENMAX">    240.43700000</i>
   <i name="ENAUG">    291.05200000</i>
   <i name="EDIFF">      0.00000100</i>
   <i type="int" name="IALGO">    38</i>
   <i type="int" name="IWAVPR">    10</i>
   <i type="int" name="NBANDS">    10</i>
   <i name="NELECT">     12.00000000</i>
   <i type="int" name="TURBO">     0</i>
   <i type="int" name="IRESTART">     0</i>
   <i type="int" name="NREBOOT">     0</i>
   <i type="int" name="NMIN">     0</i>
   <i name="EREF">      0.00000000</i>
   <separator name="electronic smearing" >
    <i type="int" name="ISMEAR">     1</i>
    <i name="SIGMA">      0.20000000</i>
    <i name="KSPACING">      0.50000000</i>
    <i type="logical" name="KGAMMA"> T  </i>
   </separator>
   <separator name="electronic projectors" >
    <i type="logical" name="LREAL"> F  </i>
    <v name="ROPT">      0.00000000</v>
    <i type="int" name="LMAXPAW">  -100</i>
    <i type="int" name="LMAXMIX">     2</i>
    <i type="logical" name="NLSPLINE"> F  </i>
   </separator>
   <separator name="electronic startup" >
    <i type="int" name="ISTART">     1</i>
    <i type="int" name="ICHARG">     0</i>
    <i type="int" name="INIWAV">     1</i>
   </separator>
   <separator name="electronic spin" >
    <i type="int" name="ISPIN">     1</i>
    <i type="logical" name="LNONCOLLINEAR"> F  </i>
    <v name="MAGMOM">      1.00000000      1.00000000      1.00000000      1.00000000</v>
    <i name="NUPDOWN">     -1.00000000</i>
    <i type="logical" name="LSORBIT"> F  </i>
    <v name="SAXIS">      0.00000000      0.00000000      1.00000000</v>
    <i type="logical" name="LSPIRAL"> F  </i>
    <v name="QSPIRAL">      0.00000000      0.00000000      0.00000000</v>
    <i type="logical" name="LZEROZ"> F  </i>
   </separator>
   <separator name="electronic exchange-correlation" >
    <i type="logical" name="LASPH"> F  </i>
    <i type="logical" name="LMETAGGA"> F  </i>
   </separator>
   <separator name="electronic convergence" >
    <i type="int" name="NELM">    60</i>
    <i type="int" name="NELMDL">     0</i>
    <i type="int" name="NELMIN">     2</i>
    <i name="ENINI">    240.43700000</i>
    <separator name="electronic convergence detail" >
     <i type="logical" name="LDIAG"> T  </i>
     <i type="logical" name="LSUBROT"> T  </i>
     <i name="WEIMIN">      0.00000000</i>
     <i name="EBREAK">      0.00000002</i>
     <i name="DEPER">      0.30000000</i>
     <i type="int" name="NRMM">     4</i>
     <i name="TIME">      0.40000000</i>
    </separator>
   </separator>
   <separator name="electronic mixer" >
    <i name="AMIX">      0.40000000</i>
    <i name="BMIX">      1.00000000</i>
    <i name="AMIN">      0.10000000</i>
    <i name="AMIX_MAG">      1.60000000</i>
    <i name="BMIX_MAG">      1.00000000</i>
    <separator name="electronic mixer details" >
     <i type="int" name="IMIX">     4</i>
     <i type="int" name="MAXMIX">   -45</i>
     <i name="WC">    100.00000000</i>
     <i type="int" name="INIMIX">     1</i>
     <i type="int" name="MIXPRE">     1</i>
     <i type="int" name="MREMOVE">     5</i>
    </separator>
   </separator>
   <separator name="electronic dipolcorrection" >
    <i type="logical" name="LDIPOL"> F  </i>
    <i type="logical" name="LMONO"> F  </i>
    <i type="int" name="IDIPOL">     0</i>
    <i name="EPSILON">      1.00000000</i>
    <v name="DIPOL">   -100.00000000   -100.00000000   -100.00000000</v>
    <i name="EFIELD">      0.00000000</i>
   </separator>
  </separator>
  <separator name="grids" >
   <i type="int" name="NGX">    16</i>
   <i type="int" name="NGY">    16</i>
   <i type="int" name="NGZ">    16</i>
   <i type="int" name="NGXF">    32</i>
   <i type="int" name="NGYF">    32</i>
   <i type="int" name="NGZF">    32</i>
   <i type="logical" name="ADDGRID"> F  </i>
  </separator>
  <separator name="ionic" >
   <i type="int" name="NSW">     0</i>
   <i type="int" name="IBRION">    -1</i>
   <i type="int" name="ISIF">     2</i>
   <i name="PSTRESS">      0.00000000</i>
   <i name="EDIFFG">      0.00001000</i>
   <i type="int" name="NFREE">     0</i>
   <i name="POTIM">      0.50000000</i>
   <i name="SMASS">     -3.00000000</i>
   <i name="SCALEE">      1.00000000</i>
  </separator>
  <separator name="ionic md" >
   <i name="TEBEG">      0.00010000</i>
   <i name="TEEND">      0.00010000</i>
   <i type="int" name="NBLOCK">     1</i>
   <i type="int" name="KBLOCK">     1</i>
   <i type="int" name="NPACO">   256</i>
   <i name="APACO">     16.00000000</i>
  </separator>
  <separator name="symmetry" >
   <i type="int" name="ISYM">     2</i>
   <i name="SYMPREC">      0.00001000</i>
  </separator>
  <separator name="dos" >
   <i type="logical" name="LORBIT"> F  </i>
   <v name="RWIGS">      1.40200000</v>
   <i type="int" name="NEDOS">   301</i>
   <i name="EMIN">     10.00000000</i>
   <i name="EMAX">    -10.00000000</i>
   <i name="EFERMI">      0.00000000</i>
  </separator>
  <separator name="writing" >
   <i type="int" name="NWRITE">     2</i>
   <i type="logical" name="LWAVE"> T  </i>
   <i type="logical" name="LCHARG"> T  </i>
   <i type="logical" name="LPARD"> F  </i>
   <i type="logical" name="LVTOT"> F  </i>
   <i type="logical" name="LVHAR"> F  </i>
   <i type="logical" name="LELF"> F  </i>
   <i type="logical" name="LOPTICS"> F  </i>
   <v name="STM">      0.00000000      0.00000000      0.00000000      0.00000000      0.00000000      0.00000000      0.00000000</v>
  </separator>
  <separator name="performance" >
   <i type="int" name="NPAR">     2</i>
   <i type="int" name="NSIM">     4</i>
   <i type="int" name="NBLK">    -1</i>
   <i type="logical" name="LPLANE"> T  </i>
   <i type="logical" name="LSCALAPACK"> F  </i>
   <i type="logical" name="LSCAAWARE"> F  </i>
   <i type="logical" name="LSCALU"> F  </i>
   <i type="logical" name="LASYNC"> F  </i>
   <i type="logical" name="LORBITALREAL"> F  </i>
  </separator>
  <separator name="miscellaneous" >
   <i type="int" name="IDIOT">     3</i>
   <i type="logical" name="LMUSIC"> F  </i>
   <v name="POMASS">     26.98200000</v>
   <v name="DARWINR">      0.00000000</v>
   <v name="DARWINV">      1.00000000</v>
   <i type="logical" name="LCORR"> T  </i>
  </separator>
  <i type="logical" name="GGA_COMPAT"> T  </i>
  <i type="logical" name="LBERRY"> F  </i>
  <i type="int" name="ICORELEVEL">     0</i>
  <i type="logical" name="LDAU"> F  </i>
  <i type="int" name="I_CONSTRAINED_M">     0</i>
  <separator name="electronic exchange-correlation" >
   <i type="string" name="GGA">--</i>
   <i type="int" name="VOSKOWN">     0</i>
   <i type="logical" name="LHFCALC"> F  </i>
   <i type="string" name="PRECFOCK"></i>
   <i type="logical" name="LSYMGRAD"> F  </i>
   <i type="logical" name="LHFONE"> F  </i>
   <i type="logical" name="LRHFCALC"> F  </i>
   <i type="logical" name="LTHOMAS"> F  </i>
   <i type="logical" name="LMODELHF"> F  </i>
   <i name="ENCUT4O">     -1.00000000</i>
   <i type="int" name="EXXOEP">     0</i>
   <i type="int" name="FOURORBIT">     0</i>
   <i name="AEXX">      0.00000000</i>
   <i name="HFALPHA">      0.00000000</i>
   <i name="MCALPHA">      0.00000000</i>
   <i name="ALDAX">      1.00000000</i>
   <i name="AGGAX">      1.00000000</i>
   <i name="ALDAC">      1.00000000</i>
   <i name="AGGAC">      1.00000000</i>
   <i type="int" name="NKREDX">     1</i>
   <i type="int" name="NKREDY">     1</i>
   <i type="int" name="NKREDZ">     1</i>
   <i type="logical" name="SHIFTRED"> F  </i>
   <i type="logical" name="ODDONLY"> F  </i>
   <i type="logical" name="EVENONLY"> F  </i>
   <i type="int" name="LMAXFOCK">     0</i>
   <i type="int" name="NMAXFOCKAE">     0</i>
   <i type="logical" name="LFOCKAEDFT"> F  </i>
   <i name="HFSCREEN">      0.00000000</i>
   <i name="HFSCREENC">      0.00000000</i>
   <i type="int" name="NBANDSGWLOW">     0</i>
  </separator>
  <separator name="vdW DFT" >
   <i type="logical" name="LUSE_VDW"> F  </i>
   <i name="Zab_VDW">     -0.84910000</i>
   <i name="PARAM1">      0.12340000</i>
   <i name="PARAM2">      1.00000000</i>
   <i name="PARAM3">      0.00000000</i>
  </separator>
  <separator name="model GW" >
   <i type="int" name="MODEL_GW">     0</i>
   <i name="MODEL_EPS0">     11.11320000</i>
   <i name="MODEL_ALPHA">      1.00000000</i>
  </separator>
  <separator name="linear response parameters" >
   <i type="logical" name="LEPSILON"> F  </i>
   <i type="logical" name="LRPA"> F  </i>
   <i type="logical" name="LNABLA"> F  </i>
   <i type="logical" name="LVEL"> F  </i>
   <i type="int" name="KINTER">     0</i>
   <i name="CSHIFT">      0.10000000</i>
   <i name="OMEGAMAX">     -1.00000000</i>
   <i name="DEG_THRESHOLD">      0.00200000</i>
  </separator>
  <separator name="orbital magnetization" >
   <i type="logical" name="NUCIND"> F  </i>
   <v name="MAGPOS">      0.00000000      0.00000000      0.00000000</v>
   <i type="logical" name="LNICSALL"> T  </i>
   <i type="logical" name="ORBITALMAG"> F  </i>
   <i type="logical" name="LMAGBLOCH"> F  </i>
   <i type="logical" name="LCHIMAG"> F  </i>
   <i type="logical" name="LGAUGE"> T  </i>
   <i type="int" name="MAGATOM">     0</i>
   <v name="MAGDIPOL">      0.00000000      0.00000000      0.00000000</v>
   <v name="AVECCONST">      0.00000000      0.00000000      0.00000000</v>
  </separator>
  <separator name="response functions" >
   <i type="logical" name="LADDER"> F  </i>
   <i type="logical" name="LHARTREE"> T  </i>
   <i type="int" name="IBSE">     0</i>
   <i type="logical" name="LTCTE"> F  </i>
   <i type="logical" name="LTETE"> F  </i>
   <i type="logical" name="LTRIPLET"> F  </i>
   <i type="logical" name="LFXCEPS"> F  </i>
   <i type="logical" name="L2ORDER"> F  </i>
   <i type="logical" name="LUSEW"> F  </i>
   <i name="ENCUTGW">     -2.00000000</i>
   <i name="ENCUTGWSOFT">     -2.00000000</i>
   <i name="ENCUTLF">     -1.00000000</i>
   <i type="int" name="LMAXMP2">    -1</i>
   <i name="SCISSOR">      0.00000000</i>
   <i type="int" name="NOMEGA">     0</i>
   <i type="int" name="NOMEGAR">     0</i>
   <i type="int" name="NBANDSGW">    -1</i>
   <i type="int" name="NBANDSO">    -1</i>
   <i type="int" name="NBANDSV">    -1</i>
   <i type="int" name="NELM">     1</i>
   <i type="int" name="DIM">     3</i>
   <i type="int" name="ANTIRES">     0</i>
   <i name="OMEGAMAX">    -30.00000000</i>
   <i name="OMEGATL">   -200.00000000</i>
   <i type="int" name="OMEGAGRID">     0</i>
   <i name="CSHIFT">     -0.10000000</i>
   <i type="logical" name="SELFENERGY"> F  </i>
   <i type="logical" name="LSPECTRAL"> F  </i>
   <i type="logical" name="ODDONLYGW"> F  </i>
   <i type="logical" name="EVENONLYGW"> F  </i>
   <i type="int" name="NKREDLFX">     1</i>
   <i type="int" name="NKREDLFY">     1</i>
   <i type="int" name="NKREDLFZ">     1</i>
   <i type="int" name="MAXMEM">  1800</i>
   <i type="int" name="TELESCOPE">     0</i>
  </separator>
 </parameters>
 <atominfo>
  <atoms>       4 </atoms>
  <types>       1 </types>
  <array name="atoms" >
   <dimension dim="1">ion</dimension>
   <field type="string">element</field>
   <field type="int">atomtype</field>
   <set>
    <rc><c>Al</c><c>   1</c></rc>
    <rc><c>Al</c><c>   1</c></rc>
    <rc><c>Al</c><c>   1</c></rc>
    <rc><c>Al</c><c>   1</c></rc>
   </set>
  </array>
  <array name="atomtypes" >
   <dimension dim="1">type</dimension>
   <field type="int">atomspertype</field>
   <field type="string">element</field>
   <field>mass</field>
   <field>valence</field>
   <field type="string">pseudopotential</field>
   <set>
    <rc><c>   4</c><c>Al</c><c>     26.98200000</c><c>      3.00000000</c><c>  PAW Al                                </c></rc>
   </set>
  </array>
 </atominfo>
 <structure name="initialpos" >
  <crystal>
   <varray name="basis" >
    <v>       4.20000000       0.00000000       0.00000000 </v>
    <v>       0.00000000       4.20000000       0.00000000 </v>
    <v>       0.00000000       0.00000000       4.20000000 </v>
   </varray>
   <i name="volume">     74.08800000 </i>
   <varray name="rec_basis" >
    <v>       0.23809524       0.00000000       0.00000000 </v>
    <v>       0.00000000       0.23809524       0.00000000 </v>
    <v>       0.00000000       0.00000000       0.23809524 </v>
   </varray>
  </crystal>
  <varray name="positions" >
   <v>       0.00000000       0.00000000       0.00000000 </v>
   <v>       0.00000000       0.50000000       0.50000000 </v>
   <v>       0.50000000       0.00000000       0.50000000 </v>
   <v>       0.50000000       0.50000000       0.00000000 </v>
  </varray>
 </structure>
 <calculation>
  <scstep>
   <time name="dav">    0.53    0.54</time>
   <time name="total">    0.62    0.63</time>
   <energy>
    <i name="alphaZ">     -0.54991397 </i>
    <i name="ewald">   -282.94730896 </i>
    <i name="hartreedc">     -0.39851234 </i>
    <i name="XCdc">   -105.98942708 </i>
    <i name="pawpsdc">    141.64110296 </i>
    <i name="pawaedc">    -13.41371512 </i>
    <i name="eentropy">     -0.00047357 </i>
    <i name="bandstr">     32.30389127 </i>
    <i name="atom">    214.75202816 </i>
    <i name="e_fr_energy">    -14.60232865 </i>
    <i name="e_wo_entrp">    -14.60185508 </i>
    <i name="e_0_energy">    -14.60217079 </i>
   </energy>
  </scstep>
  <scstep>
   <time name="dav">    0.54    0.55</time>
   <time name="total">    0.63    0.65</time>
   <energy>
    <i name="e_fr_energy">    -14.60110903 </i>
    <i name="e_wo_entrp">    -14.60063873 </i>
    <i name="e_0_energy">    -14.60095226 </i>
   </energy>
  </scstep>
  <scstep>
   <time name="dav">    0.52    0.53</time>
   <time name="total">    0.62    0.63</time>
   <energy>
    <i name="e_fr_energy">    -14.60030886 </i>
    <i name="e_wo_entrp">    -14.59984320 </i>
    <i name="e_0_energy">    -14.60015364 </i>
   </energy>
  </scstep>
  <scstep>
   <time name="dav">    0.49    0.50</time>
   <time name="total">    0.58    0.59</time>
   <energy>
    <i name="e_fr_energy">    -14.60030422 </i>
    <i name="e_wo_entrp">    -14.59983855 </i>
    <i name="e_0_energy">    -14.60014900 </i>
   </energy>
  </scstep>
  <scstep>
   <time name="dav">    0.30    0.31</time>
   <time name="total">    0.38    0.39</time>
   <energy>
    <i name="e_fr_energy">    -14.60029906 </i>
    <i name="e_wo_entrp">    -14.59983344 </i>
    <i name="e_0_energy">    -14.60014385 </i>
   </energy>
  </scstep>
  <scstep>
   <time name="dav">    0.31    0.32</time>
   <time name="total">    0.36    0.37</time>
   <energy>
    <i name="alphaZ">     -0.54991397 </i>
    <i name="ewald">   -282.94730896 </i>
    <i name="hartreedc">     -0.41828413 </i>
    <i name="XCdc">   -106.03522902 </i>
    <i name="pawpsdc">    142.45296791 </i>
    <i name="pawaedc">    -14.26373852 </i>
    <i name="eentropy">     -0.00046562 </i>
    <i name="bandstr">     32.40964488 </i>
    <i name="atom">    214.75202816 </i>
    <i name="e_fr_energy">    -14.60029928 </i>
    <i name="e_wo_entrp">    -14.59983366 </i>
    <i name="e_0_energy">    -14.60014407 </i>
   </energy>
  </scstep>
  <structure>
   <crystal>
    <varray name="basis" >
     <v>       4.20000000       0.00000000       0.00000000 </v>
     <v>       0.00000000       4.20000000       0.00000000 </v>
     <v>       0.00000000       0.00000000       4.20000000 </v>
    </varray>
    <i name="volume">     74.08800000 </i>
    <varray name="rec_basis" >
     <v>       0.23809524       0.00000000       0.00000000 </v>
     <v>       0.00000000       0.23809524       0.00000000 </v>
     <v>       0.00000000       0.00000000       0.23809524 </v>
    </varray>
   </crystal>
   <varray name="positions" >
    <v>       0.00000000       0.00000000       0.00000000 </v>
    <v>       0.00000000       0.50000000       0.50000000 </v>
    <v>       0.50000000       0.00000000       0.50000000 </v>
    <v>       0.50000000       0.50000000       0.00000000 </v>
   </varray>
  </structure>
  <varray name="forces" >
   <v>       0.00000000       0.00000000       0.00000000 </v>
   <v>       0.00000000       0.00000000       0.00000000 </v>
   <v>       0.00000000       0.00000000       0.00000000 </v>
   <v>       0.00000000       0.00000000       0.00000000 </v>
  </varray>
  <varray name="stress" >
   <v>     -62.45019473       0.00000000       0.00000000 </v>
   <v>       0.00000000     -62.45019473       0.00000000 </v>
   <v>       0.00000000       0.00000000     -62.45019473 </v>
  </varray>
  <energy>
   <i name="e_fr_energy">    -14.60029928 </i>
   <i name="e_wo_entrp">    -14.60014407 </i>
   <i name="e_0_energy">     -0.00046562 </i>
  </energy>
  <time name="totalsc">    3.85    3.95</time>
  <eigenvalues>
   <array>
    <dimension dim="1">band</dimension>
    <dimension dim="2">kpoint</dimension>
    <dimension dim="3">spin</dimension>
    <field>eigene</field>
    <field>occ</field>
    <set>
     <set comment="spin 1">
      <set comment="kpoint 1">
       <r>   -3.4747    1.0000 </r>
       <r>    3.7913    1.0000 </r>
       <r>    3.7913    1.0000 </r>
       <r>    3.7913    1.0000 </r>
       <r>    5.7126    1.0000 </r>
       <r>    5.7126    1.0000 </r>
       <r>    5.7126    1.0000 </r>
       <r>   10.7601    0.0000 </r>
       <r>   10.7601    0.0000 </r>
       <r>   10.7601    0.0000 </r>
      </set>
      <set comment="kpoint 2">
       <r>   -3.3070    1.0000 </r>
       <r>    2.4313    1.0000 </r>
       <r>    3.9495    1.0000 </r>
       <r>    3.9495    1.0000 </r>
       <r>    5.8742    1.0000 </r>
       <r>    5.8742    1.0000 </r>
       <r>    7.3653   -0.0006 </r>
       <r>    9.4282    0.0000 </r>
       <r>    9.4282    0.0000 </r>
       <r>   10.9140    0.0000 </r>
      </set>
      <set comment="kpoint 3">
       <r>   -2.9724    1.0000 </r>
       <r>    1.1475    1.0000 </r>
       <r>    4.2657    1.0000 </r>
       <r>    4.2657    1.0000 </r>
       <r>    6.1971    1.0000 </r>
       <r>    6.1971    1.0000 </r>
       <r>    8.1918    0.0000 </r>
       <r>    8.1918    0.0000 </r>
       <r>    9.2377    0.0000 </r>
       <r>   10.0875    0.0000 </r>
      </set>
      <set comment="kpoint 4">
       <r>   -2.4717    1.0000 </r>
       <r>    0.0070    1.0000 </r>
       <r>    4.7395    1.0000 </r>
       <r>    4.7395    1.0000 </r>
       <r>    6.6798    0.9901 </r>
       <r>    6.6798    0.9901 </r>
       <r>    7.0992   -0.0347 </r>
       <r>    7.0992   -0.0347 </r>
       <r>    9.0375    0.0000 </r>
       <r>    9.0375    0.0000 </r>
      </set>
      <set comment="kpoint 5">
       <r>   -1.8067    1.0000 </r>
       <r>   -0.9794    1.0000 </r>
       <r>    5.3708    1.0000 </r>
       <r>    5.3708    1.0000 </r>
       <r>    6.1576    1.0000 </r>
       <r>    6.1576    1.0000 </r>
       <r>    7.3176   -0.0019 </r>
       <r>    7.3176   -0.0019 </r>
       <r>    8.1081    0.0000 </r>
       <r>    8.1081    0.0000 </r>
      </set>
      <set comment="kpoint 6">
       <r>   -3.1396    1.0000 </r>
       <r>    2.5924    1.0000 </r>
       <r>    2.5924    1.0000 </r>
       <r>    4.1075    1.0000 </r>
       <r>    6.0354    1.0000 </r>
       <r>    7.5243    0.0000 </r>
       <r>    7.5243    0.0000 </r>
       <r>    8.1234    0.0000 </r>
       <r>    9.5838    0.0000 </r>
       <r>    9.5838    0.0000 </r>
      </set>
      <set comment="kpoint 7">
       <r>   -2.8053    1.0000 </r>
       <r>    1.3101    1.0000 </r>
       <r>    2.9144    1.0000 </r>
       <r>    4.4235    1.0000 </r>
       <r>    6.3581    1.0017 </r>
       <r>    6.8864    0.3087 </r>
       <r>    7.8412    0.0000 </r>
       <r>    8.3485    0.0000 </r>
       <r>    9.3936    0.0000 </r>
       <r>    9.8946    0.0000 </r>
      </set>
      <set comment="kpoint 8">
       <r>   -2.3053    1.0000 </r>
       <r>    0.1708    1.0000 </r>
       <r>    3.3961    1.0000 </r>
       <r>    4.8971    1.0000 </r>
       <r>    5.7857    1.0000 </r>
       <r>    6.8402    0.4984 </r>
       <r>    7.2558   -0.0061 </r>
       <r>    8.3142    0.0000 </r>
       <r>    9.1938    0.0000 </r>
       <r>   10.3595    0.0000 </r>
      </set>
      <set comment="kpoint 9">
       <r>   -1.6409    1.0000 </r>
       <r>   -0.8145    1.0000 </r>
       <r>    4.0363    1.0000 </r>
       <r>    4.8344    1.0000 </r>
       <r>    5.5283    1.0000 </r>
       <r>    6.3147    1.0007 </r>
       <r>    7.4773    0.0000 </r>
       <r>    8.2643    0.0000 </r>
       <r>    8.9411    0.0000 </r>
       <r>    9.7129    0.0000 </r>
      </set>
      <set comment="kpoint 10">
       <r>   -2.4718    1.0000 </r>
       <r>    1.6350    1.0000 </r>
       <r>    1.6350    1.0000 </r>
       <r>    4.7393    1.0000 </r>
       <r>    5.6404    1.0000 </r>
       <r>    6.6801    0.9896 </r>
       <r>    8.6611    0.0000 </r>
       <r>    8.6611    0.0000 </r>
       <r>    9.7056    0.0000 </r>
       <r>    9.7056    0.0000 </r>
      </set>
      <set comment="kpoint 11">
       <r>   -1.9729    1.0000 </r>
       <r>    0.4981    1.0000 </r>
       <r>    2.1210    1.0000 </r>
       <r>    4.5314    1.0000 </r>
       <r>    5.2129    1.0000 </r>
       <r>    7.1599   -0.0230 </r>
       <r>    7.5693    0.0000 </r>
       <r>    9.1290    0.0000 </r>
       <r>    9.5037    0.0000 </r>
       <r>   10.1697    0.0000 </r>
      </set>
      <set comment="kpoint 12">
       <r>   -1.3098    1.0000 </r>
       <r>   -0.4852    1.0000 </r>
       <r>    2.7674    1.0000 </r>
       <r>    3.5716    1.0000 </r>
       <r>    5.8431    1.0000 </r>
       <r>    6.6292    1.0298 </r>
       <r>    7.7949    0.0000 </r>
       <r>    8.5795    0.0000 </r>
       <r>    9.7513    0.0000 </r>
       <r>   10.5268    0.0000 </r>
      </set>
      <set comment="kpoint 13">
       <r>   -1.4752    1.0000 </r>
       <r>    0.9878    1.0000 </r>
       <r>    0.9878    1.0000 </r>
       <r>    3.4142    1.0000 </r>
       <r>    5.6858    1.0000 </r>
       <r>    7.6373    0.0000 </r>
       <r>    8.0392    0.0000 </r>
       <r>    8.0392    0.0000 </r>
       <r>    9.9686    0.0000 </r>
       <r>    9.9686    0.0000 </r>
      </set>
      <set comment="kpoint 14">
       <r>   -0.8144    1.0000 </r>
       <r>    0.0076    1.0000 </r>
       <r>    1.6384    1.0000 </r>
       <r>    2.4480    1.0000 </r>
       <r>    6.3150    1.0007 </r>
       <r>    7.1001   -0.0346 </r>
       <r>    8.2689    0.0000 </r>
       <r>    8.6646    0.0000 </r>
       <r>    9.0494    0.0000 </r>
       <r>    9.4434    0.0000 </r>
      </set>
      <set comment="kpoint 15">
       <r>   -0.1563    1.0000 </r>
       <r>    0.6623    1.0000 </r>
       <r>    0.6623    1.0000 </r>
       <r>    1.4767    1.0000 </r>
       <r>    6.9433    0.1205 </r>
       <r>    7.7273    0.0000 </r>
       <r>    7.7273    0.0000 </r>
       <r>    8.5092    0.0000 </r>
       <r>    8.8961    0.0000 </r>
       <r>    9.6708    0.0000 </r>
      </set>
      <set comment="kpoint 16">
       <r>   -2.9724    1.0000 </r>
       <r>    2.7533    1.0000 </r>
       <r>    2.7533    1.0000 </r>
       <r>    2.7533    1.0000 </r>
       <r>    7.6828    0.0000 </r>
       <r>    7.6828    0.0000 </r>
       <r>    7.6828    0.0000 </r>
       <r>    8.2802    0.0000 </r>
       <r>    8.2802    0.0000 </r>
       <r>    8.2802    0.0000 </r>
      </set>
      <set comment="kpoint 17">
       <r>   -2.6384    1.0000 </r>
       <r>    1.4726    1.0000 </r>
       <r>    3.0753    1.0000 </r>
       <r>    3.0753    1.0000 </r>
       <r>    7.0435   -0.0269 </r>
       <r>    7.0435   -0.0269 </r>
       <r>    8.0004    0.0000 </r>
       <r>    8.0004    0.0000 </r>
       <r>    8.5929    0.0000 </r>
       <r>    9.5502    0.0000 </r>
      </set>
      <set comment="kpoint 18">
       <r>   -2.1390    1.0000 </r>
       <r>    0.3345    1.0000 </r>
       <r>    3.5565    1.0000 </r>
       <r>    3.5565    1.0000 </r>
       <r>    5.9443    1.0000 </r>
       <r>    5.9443    1.0000 </r>
       <r>    8.4723    0.0000 </r>
       <r>    8.4723    0.0000 </r>
       <r>    9.0615    0.0000 </r>
       <r>   10.7708    0.0000 </r>
      </set>
      <set comment="kpoint 19">
       <r>   -1.4754    1.0000 </r>
       <r>   -0.6497    1.0000 </r>
       <r>    4.1960    1.0000 </r>
       <r>    4.1960    1.0000 </r>
       <r>    4.9936    1.0000 </r>
       <r>    4.9936    1.0000 </r>
       <r>    9.0965    0.0000 </r>
       <r>    9.0965    0.0000 </r>
       <r>    9.6841    0.0000 </r>
       <r>    9.8683    0.0000 </r>
      </set>
      <set comment="kpoint 20">
       <r>   -2.3053    1.0000 </r>
       <r>    1.7971    1.0000 </r>
       <r>    1.7971    1.0000 </r>
       <r>    3.3962    1.0000 </r>
       <r>    5.7990    1.0000 </r>
       <r>    7.3587   -0.0008 </r>
       <r>    7.3587   -0.0008 </r>
       <r>    8.3156    0.0000 </r>
       <r>    9.8613    0.0000 </r>
       <r>    9.8613    0.0000 </r>
      </set>
      <set comment="kpoint 21">
       <r>   -1.8068    1.0000 </r>
       <r>    0.6614    1.0000 </r>
       <r>    2.2827    1.0000 </r>
       <r>    3.8762    1.0000 </r>
       <r>    4.6911    1.0000 </r>
       <r>    6.2607    1.0002 </r>
       <r>    7.8305    0.0000 </r>
       <r>    8.7863    0.0000 </r>
       <r>   10.1667    0.0000 </r>
       <r>   10.3242    0.0000 </r>
      </set>
      <set comment="kpoint 22">
       <r>   -1.1445    1.0000 </r>
       <r>   -0.3208    1.0000 </r>
       <r>    2.9283    1.0000 </r>
       <r>    3.7314    1.0000 </r>
       <r>    4.5164    1.0000 </r>
       <r>    5.3115    1.0000 </r>
       <r>    8.4572    0.0000 </r>
       <r>    9.2372    0.0000 </r>
       <r>    9.4087    0.0000 </r>
       <r>   10.1772    0.0000 </r>
      </set>
      <set comment="kpoint 23">
       <r>   -1.3098    1.0000 </r>
       <r>    1.1506    1.0000 </r>
       <r>    1.1506    1.0000 </r>
       <r>    3.5741    1.0000 </r>
       <r>    4.3568    1.0000 </r>
       <r>    6.7348    0.8833 </r>
       <r>    6.7348    0.8833 </r>
       <r>    9.0857    0.0000 </r>
       <r>    9.2549    0.0000 </r>
       <r>   11.5331    0.0000 </r>
      </set>
      <set comment="kpoint 24">
       <r>   -0.6497    1.0000 </r>
       <r>    0.1715    1.0000 </r>
       <r>    1.8006    1.0000 </r>
       <r>    2.6093    1.0000 </r>
       <r>    4.9939    1.0000 </r>
       <r>    5.7878    1.0000 </r>
       <r>    7.3654   -0.0006 </r>
       <r>    8.1498    0.0000 </r>
       <r>    9.8749    0.0000 </r>
       <r>   10.6393    0.0000 </r>
      </set>
      <set comment="kpoint 25">
       <r>    0.0077    1.0000 </r>
       <r>    0.8254    1.0000 </r>
       <r>    0.8254    1.0000 </r>
       <r>    1.6390    1.0000 </r>
       <r>    5.6296    1.0000 </r>
       <r>    6.4208    1.0058 </r>
       <r>    6.4208    1.0058 </r>
       <r>    7.2091   -0.0127 </r>
       <r>   10.4905    0.0000 </r>
       <r>   11.2496    0.0000 </r>
      </set>
      <set comment="kpoint 26">
       <r>   -1.9729    1.0000 </r>
       <r>    2.1209    1.0000 </r>
       <r>    2.1209    1.0000 </r>
       <r>    2.1209    1.0000 </r>
       <r>    6.1159    1.0000 </r>
       <r>    6.1159    1.0000 </r>
       <r>    6.1159    1.0000 </r>
       <r>   10.0244    0.0000 </r>
       <r>   10.1710    0.0000 </r>
       <r>   10.1710    0.0000 </r>
      </set>
      <set comment="kpoint 27">
       <r>   -1.4753    1.0000 </r>
       <r>    0.9876    1.0000 </r>
       <r>    2.6055    1.0000 </r>
       <r>    2.6055    1.0000 </r>
       <r>    5.0098    1.0000 </r>
       <r>    5.0098    1.0000 </r>
       <r>    6.5913    1.0354 </r>
       <r>    8.9441    0.0000 </r>
       <r>   10.6328    0.0000 </r>
       <r>   10.6328    0.0000 </r>
      </set>
      <set comment="kpoint 28">
       <r>   -0.8146    1.0000 </r>
       <r>    0.0075    1.0000 </r>
       <r>    3.2491    1.0000 </r>
       <r>    3.2491    1.0000 </r>
       <r>    4.0542    1.0000 </r>
       <r>    4.0542    1.0000 </r>
       <r>    7.2221   -0.0105 </r>
       <r>    8.0076    0.0000 </r>
       <r>   11.2395    0.0000 </r>
       <r>   11.2395    0.0000 </r>
      </set>
      <set comment="kpoint 29">
       <r>   -0.9795    1.0000 </r>
       <r>    1.4757    1.0000 </r>
       <r>    1.4757    1.0000 </r>
       <r>    3.0882    1.0000 </r>
       <r>    3.8977    1.0000 </r>
       <r>    5.4872    1.0000 </r>
       <r>    5.4872    1.0000 </r>
       <r>    7.8548    0.0000 </r>
       <r>   11.0915    0.0000 </r>
       <r>   12.6130    0.0000 </r>
      </set>
      <set comment="kpoint 30">
       <r>   -0.3208    1.0000 </r>
       <r>    0.4987    1.0000 </r>
       <r>    2.1242    1.0000 </r>
       <r>    2.9302    1.0000 </r>
       <r>    3.7344    1.0000 </r>
       <r>    4.5335    1.0000 </r>
       <r>    6.1224    1.0000 </r>
       <r>    6.9126    0.2132 </r>
       <r>   11.6960    0.0000 </r>
       <r>   12.4323    0.0000 </r>
      </set>
      <set comment="kpoint 31">
       <r>    0.3352    1.0000 </r>
       <r>    1.1512    1.0000 </r>
       <r>    1.1512    1.0000 </r>
       <r>    1.9629    1.0000 </r>
       <r>    4.3736    1.0000 </r>
       <r>    5.1714    1.0000 </r>
       <r>    5.1714    1.0000 </r>
       <r>    5.9655    1.0000 </r>
       <r>   12.2967    0.0000 </r>
       <r>   13.0284    0.0000 </r>
      </set>
      <set comment="kpoint 32">
       <r>   -0.4853    1.0000 </r>
       <r>    1.9621    1.0000 </r>
       <r>    1.9621    1.0000 </r>
       <r>    1.9621    1.0000 </r>
       <r>    4.3772    1.0000 </r>
       <r>    4.3772    1.0000 </r>
       <r>    4.3772    1.0000 </r>
       <r>    6.7591    0.8127 </r>
       <r>   13.0582    0.0000 </r>
       <r>   13.0582    0.0000 </r>
      </set>
      <set comment="kpoint 33">
       <r>    0.1713    1.0000 </r>
       <r>    0.9881    1.0000 </r>
       <r>    2.6070    1.0000 </r>
       <r>    2.6070    1.0000 </r>
       <r>    3.4183    1.0000 </r>
       <r>    3.4183    1.0000 </r>
       <r>    5.0153    1.0000 </r>
       <r>    5.8109    1.0000 </r>
       <r>   13.6323    0.0000 </r>
       <r>   13.6323    0.0000 </r>
      </set>
      <set comment="kpoint 34">
       <r>    0.8251    1.0000 </r>
       <r>    1.6384    1.0000 </r>
       <r>    1.6384    1.0000 </r>
       <r>    2.4459    1.0000 </r>
       <r>    3.2581    1.0000 </r>
       <r>    4.0583    1.0000 </r>
       <r>    4.0583    1.0000 </r>
       <r>    4.8576    1.0000 </r>
       <r>   14.2069    0.0000 </r>
       <r>   14.8575    0.0000 </r>
      </set>
      <set comment="kpoint 35">
       <r>    1.4759    1.0000 </r>
       <r>    2.2838    1.0000 </r>
       <r>    2.2838    1.0000 </r>
       <r>    2.2838    1.0000 </r>
       <r>    3.0987    1.0000 </r>
       <r>    3.0987    1.0000 </r>
       <r>    3.0987    1.0000 </r>
       <r>    3.8992    1.0000 </r>
       <r>   16.0910    0.0000 </r>
       <r>   16.0910    0.0000 </r>
      </set>
     </set>
    </set>
   </array>
  </eigenvalues>
  <separator name="orbital magnetization" >
   <v name="MAGDIPOLOUT">      0.00000000      0.00000000      0.00000000</v>
  </separator>
 </calculation>
 <structure name="finalpos" >
  <crystal>
   <varray name="basis" >
    <v>       4.20000000       0.00000000       0.00000000 </v>
    <v>       0.00000000       4.20000000       0.00000000 </v>
    <v>       0.00000000       0.00000000       4.20000000 </v>
   </varray>
   <i name="volume">     74.08800000 </i>
   <varray name="rec_basis" >
    <v>       0.23809524       0.00000000       0.00000000 </v>
    <v>       0.00000000       0.23809524       0.00000000 </v>
    <v>       0.00000000       0.00000000       0.23809524 </v>
   </varray>
  </crystal>
  <varray name="positions" >
   <v>       0.00000000       0.00000000       0.00000000 </v>
   <v>       0.00000000       0.50000000       0.50000000 </v>
   <v>       0.50000000       0.00000000       0.50000000 </v>
   <v>       0.50000000       0.50000000       0.00000000 </v>
  </varray>
 </structure>
</modeling>
