Al                                      
   4.05000000000000     
     0.000000    0.500000    0.500000
     0.500000    0.000000    0.500000
     0.500000    0.500000    0.000000
   Al
     1
Direct
  0.000000  0.000000  0.000000
 
   24   24   24
 -.21412     -.65097E-01 0.36183      1.0026      1.7481      2.4635      3.0279      3.3759      3.5149      3.5104    
  3.4431      3.3747      3.3470      3.3747      3.4431      3.5104      3.5149      3.3759      3.0279      2.4635    
  1.7481      1.0026     0.36183     -.65097E-01 -.65097E-01 0.22303     0.75717      1.4499      2.1770      2.8077    
  3.2482      3.4720      3.5199      3.4707      3.3942      3.3418      3.3419      3.3942      3.4707      3.5199    
  3.4720      3.2482      2.8077      2.1770      1.4499     0.75714     0.22292     -.65168E-01 0.36183     0.75717    
  1.3435      2.0150      2.6464      3.1301      3.4126      3.5074      3.4792      3.4006      3.3279      3.2992    
  3.3279      3.4006      3.4792      3.5074      3.4126      3.1301      2.6464      2.0150      1.3435     0.75717    
 0.36183     0.22292      1.0026      1.4499      2.0150      2.5873      3.0597      3.3628      3.4867      3.4758    
  3.3977      3.3093      3.2536      3.2535      3.3093      3.3978      3.4758      3.4867      3.3628      3.0597    
  2.5874      2.0150      1.4500      1.0026     0.75717     0.75714      1.7481      2.1770      2.6464      3.0597    
  3.3436      3.4718      3.4692      3.3914      3.2911      3.2120      3.1825      3.2120      3.2911      3.3914    
  3.4692      3.4718      3.3436      3.0597      2.6464      2.1770      1.7481      1.4500      1.3435      1.4499    
  2.4635      2.8077      3.1301      3.3628      3.4718      3.4662      3.3867      3.2781      3.1810      3.1250    
  3.1250      3.1810      3.2781      3.3867      3.4662      3.4718      3.3628      3.1301      2.8077      2.4635    
  2.1770      2.0150      2.0150      2.1770      3.0279      3.2482      3.4126      3.4867      3.4692      3.3867    
  3.2734      3.1645      3.0881      3.0609      3.0881      3.1645      3.2734      3.3867      3.4692      3.4867    
  3.4126      3.2482      3.0279      2.8077      2.6464      2.5874      2.6464      2.8077      3.3759      3.4720    
  3.5074      3.4758      3.3914      3.2781      3.1645      3.0755      3.0272      3.0272      3.0755      3.1645    
  3.2781      3.3914      3.4758      3.5075      3.4720      3.3759      3.2482      3.1301      3.0597      3.0597    
  3.1301      3.2482      3.5149      3.5199      3.4792      3.3977      3.2911      3.1810      3.0881      3.0272    
  3.0061      3.0272      3.0881      3.1810      3.2911      3.3977      3.4792      3.5199      3.5149      3.4720    
  3.4126      3.3628      3.3436      3.3628      3.4126      3.4720      3.5104      3.4707      3.4006      3.3093    
  3.2120      3.1250      3.0609      3.0272      3.0272      3.0609      3.1250      3.2121      3.3093      3.4006    
  3.4707      3.5105      3.5199      3.5075      3.4867      3.4718      3.4718      3.4867      3.5074      3.5199    
  3.4431      3.3942      3.3279      3.2536      3.1825      3.1250      3.0881      3.0755      3.0881      3.1250    
  3.1825      3.2536      3.3279      3.3942      3.4431      3.4707      3.4792      3.4758      3.4692      3.4662    
  3.4692      3.4758      3.4792      3.4707      3.3747      3.3418      3.2992      3.2535      3.2120      3.1810    
  3.1645      3.1645      3.1810      3.2121      3.2536      3.2993      3.3419      3.3747      3.3942      3.4006    
  3.3977      3.3914      3.3867      3.3867      3.3914      3.3978      3.4006      3.3942      3.3470      3.3419    
  3.3279      3.3093      3.2911      3.2781      3.2734      3.2781      3.2911      3.3093      3.3279      3.3419    
  3.3470      3.3419      3.3279      3.3093      3.2911      3.2781      3.2734      3.2781      3.2911      3.3093    
  3.3279      3.3419      3.3747      3.3942      3.4006      3.3978      3.3914      3.3867      3.3867      3.3914    
  3.3977      3.4006      3.3942      3.3747      3.3419      3.2993      3.2536      3.2121      3.1810      3.1645    
  3.1645      3.1810      3.2120      3.2535      3.2992      3.3418      3.4431      3.4707      3.4792      3.4758    
  3.4692      3.4662      3.4692      3.4758      3.4792      3.4707      3.4431      3.3942      3.3279      3.2536    
  3.1825      3.1250      3.0881      3.0755      3.0881      3.1250      3.1825      3.2536      3.3279      3.3942    
  3.5104      3.5199      3.5074      3.4867      3.4718      3.4718      3.4867      3.5075      3.5199      3.5105    
  3.4707      3.4006      3.3093      3.2121      3.1250      3.0609      3.0272      3.0272      3.0609      3.1250    
  3.2120      3.3093      3.4006      3.4707      3.5149      3.4720      3.4126      3.3628      3.3436      3.3628    
  3.4126      3.4720      3.5149      3.5199      3.4792      3.3977      3.2911      3.1810      3.0881      3.0272    
  3.0061      3.0272      3.0881      3.1810      3.2911      3.3977      3.4792      3.5199      3.3759      3.2482    
  3.1301      3.0597      3.0597      3.1301      3.2482      3.3759      3.4720      3.5075      3.4758      3.3914    
  3.2781      3.1645      3.0755      3.0272      3.0272      3.0755      3.1645      3.2781      3.3914      3.4758    
  3.5074      3.4720      3.0279      2.8077      2.6464      2.5874      2.6464      2.8077      3.0279      3.2482    
  3.4126      3.4867      3.4692      3.3867      3.2734      3.1645      3.0881      3.0609      3.0881      3.1645    
  3.2734      3.3867      3.4692      3.4867      3.4126      3.2482      2.4635      2.1770      2.0150      2.0150    
  2.1770      2.4635      2.8077      3.1301      3.3628      3.4718      3.4662      3.3867      3.2781      3.1810    
  3.1250      3.1250      3.1810      3.2781      3.3867      3.4662      3.4718      3.3628      3.1301      2.8077    
  1.7481      1.4499      1.3435      1.4500      1.7481      2.1770      2.6464      3.0597      3.3436      3.4718    
  3.4692      3.3914      3.2911      3.2120      3.1825      3.2120      3.2911      3.3914      3.4692      3.4718    
  3.3436      3.0597      2.6464      2.1770      1.0026     0.75714     0.75717      1.0026      1.4500      2.0150    
  2.5874      3.0597      3.3628      3.4867      3.4758      3.3978      3.3093      3.2535      3.2536      3.3093    
  3.3977      3.4758      3.4867      3.3628      3.0597      2.5873      2.0150      1.4499     0.36183     0.22292    
 0.36183     0.75717      1.3435      2.0150      2.6464      3.1301      3.4126      3.5074      3.4792      3.4006    
  3.3279      3.2992      3.3279      3.4006      3.4792      3.5074      3.4126      3.1301      2.6464      2.0150    
  1.3435     0.75717     -.65097E-01 -.65168E-01 0.22292     0.75714      1.4499      2.1770      2.8077      3.2482    
  3.4720      3.5199      3.4707      3.3942      3.3419      3.3418      3.3942      3.4707      3.5199      3.4720    
  3.2482      2.8077      2.1770      1.4499     0.75717     0.22303     -.65097E-01 0.22303     0.75717      1.4499    
  2.1770      2.8077      3.2482      3.4720      3.5199      3.4707      3.3942      3.3418      3.3419      3.3942    
  3.4707      3.5199      3.4720      3.2482      2.8077      2.1770      1.4499     0.75714     0.22292     -.65168E-01
 0.22303     0.63141      1.2388      1.9376      2.5986      3.1099      3.4143      3.5237      3.5034      3.4285    
  3.3573      3.3289      3.3573      3.4285      3.5034      3.5237      3.4143      3.1099      2.5986      1.9376    
  1.2388     0.63125     0.22290     0.79708E-01 0.75717      1.2388      1.8515      2.4786      3.0046      3.3529    
  3.5088      3.5164      3.4475      3.3629      3.3082      3.3082      3.3629      3.4475      3.5164      3.5088    
  3.3529      3.0047      2.4786      1.8515      1.2388     0.75713     0.49400     0.49401      1.4499      1.9376    
  2.4786      2.9655      3.3143      3.4910      3.5181      3.4554      3.3618      3.2847      3.2555      3.2847    
  3.3618      3.4554      3.5181      3.4909      3.3143      2.9655      2.4786      1.9376      1.4500      1.1137    
 0.99420      1.1137      2.1770      2.5986      3.0046      3.3143      3.4833      3.5164      3.4574      3.3581    
  3.2637      3.2079      3.2079      3.2637      3.3581      3.4574      3.5164      3.4833      3.3143      3.0046    
  2.5986      2.1770      1.8315      1.6379      1.6380      1.8315      2.8077      3.1099      3.3529      3.4910    
  3.5164      3.4576      3.3553      3.2495      3.1727      3.1450      3.1727      3.2495      3.3553      3.4576    
  3.5164      3.4910      3.3529      3.1099      2.8077      2.5161      2.3065      2.2304      2.3065      2.5161    
  3.2482      3.4143      3.5088      3.5181      3.4574      3.3553      3.2445      3.1542      3.1043      3.1043    
  3.1542      3.2445      3.3553      3.4574      3.5181      3.5088      3.4143      3.2482      3.0514      2.8778    
  2.7767      2.7767      2.8778      3.0514      3.4720      3.5237      3.5164      3.4554      3.3581      3.2495    
  3.1542      3.0903      3.0680      3.0903      3.1542      3.2495      3.3581      3.4554      3.5164      3.5238    
  3.4720      3.3758      3.2668      3.1821      3.1502      3.1821      3.2669      3.3758      3.5199      3.5034    
  3.4475      3.3618      3.2637      3.1727      3.1043      3.0680      3.0680      3.1043      3.1727      3.2637    
  3.3618      3.4475      3.5034      3.5199      3.4988      3.4528      3.4032      3.3717      3.3717      3.4032    
  3.4528      3.4988      3.4707      3.4285      3.3629      3.2847      3.2079      3.1450      3.1043      3.0903    
  3.1043      3.1450      3.2079      3.2847      3.3629      3.4285      3.4707      3.4856      3.4778      3.4579    
  3.4388      3.4311      3.4388      3.4579      3.4777      3.4856      3.3942      3.3573      3.3082      3.2555    
  3.2079      3.1727      3.1542      3.1542      3.1727      3.2079      3.2555      3.3082      3.3573      3.3942    
  3.4140      3.4169      3.4082      3.3959      3.3875      3.3875      3.3959      3.4082      3.4169      3.4140    
  3.3418      3.3289      3.3082      3.2847      3.2637      3.2495      3.2445      3.2495      3.2637      3.2847    
  3.3082      3.3290      3.3419      3.3439      3.3352      3.3193      3.3019      3.2886      3.2837      3.2886    
  3.3019      3.3194      3.3352      3.3439      3.3419      3.3573      3.3629      3.3618      3.3581      3.3553    
  3.3553      3.3581      3.3618      3.3629      3.3573      3.3419      3.3158      3.2811      3.2429      3.2071    
  3.1797      3.1649      3.1649      3.1797      3.2071      3.2429      3.2811      3.3158      3.3942      3.4285    
  3.4475      3.4554      3.4574      3.4576      3.4574      3.4554      3.4475      3.4285      3.3942      3.3439    
  3.2811      3.2134      3.1498      3.0985      3.0655      3.0542      3.0655      3.0985      3.1498      3.2134    
  3.2811      3.3439      3.4707      3.5034      3.5164      3.5181      3.5164      3.5164      3.5181      3.5164    
  3.5034      3.4707      3.4140      3.3352      3.2429      3.1498      3.0688      3.0099      2.9792      2.9792    
  3.0099      3.0688      3.1498      3.2429      3.3352      3.4140      3.5199      3.5237      3.5088      3.4909    
  3.4833      3.4910      3.5088      3.5238      3.5199      3.4856      3.4169      3.3193      3.2071      3.0985    
  3.0099      2.9528      2.9332      2.9528      3.0099      3.0985      3.2071      3.3194      3.4169      3.4856    
  3.4720      3.4143      3.3529      3.3143      3.3143      3.3529      3.4143      3.4720      3.4988      3.4778    
  3.4082      3.3019      3.1797      3.0655      2.9792      2.9332      2.9332      2.9792      3.0655      3.1797    
  3.3019      3.4082      3.4778      3.4988      3.2482      3.1099      3.0047      2.9655      3.0046      3.1099    
  3.2482      3.3758      3.4528      3.4579      3.3959      3.2886      3.1649      3.0542      2.9792      2.9528    
  2.9792      3.0542      3.1649      3.2886      3.3959      3.4579      3.4527      3.3758      2.8077      2.5986    
  2.4786      2.4786      2.5986      2.8077      3.0514      3.2668      3.4032      3.4388      3.3875      3.2837    
  3.1649      3.0655      3.0099      3.0099      3.0655      3.1649      3.2837      3.3875      3.4388      3.4032    
  3.2668      3.0514      2.1770      1.9376      1.8515      1.9376      2.1770      2.5161      2.8778      3.1821    
  3.3717      3.4311      3.3875      3.2886      3.1797      3.0985      3.0688      3.0985      3.1797      3.2886    
  3.3875      3.4311      3.3717      3.1821      2.8778      2.5161      1.4499      1.2388      1.2388      1.4500    
  1.8315      2.3065      2.7767      3.1502      3.3717      3.4388      3.3959      3.3019      3.2071      3.1498    
  3.1498      3.2071      3.3019      3.3959      3.4388      3.3717      3.1502      2.7767      2.3065      1.8315    
 0.75714     0.63125     0.75713      1.1137      1.6379      2.2304      2.7767      3.1821      3.4032      3.4579    
  3.4082      3.3194      3.2429      3.2134      3.2429      3.3194      3.4082      3.4579      3.4032      3.1821    
  2.7767      2.2303      1.6379      1.1137     0.22292     0.22290     0.49400     0.99420      1.6380      2.3065    
  2.8778      3.2669      3.4528      3.4777      3.4169      3.3352      3.2811      3.2811      3.3352      3.4169    
  3.4778      3.4527      3.2668      2.8778      2.3065      1.6379     0.99414     0.49401     -.65168E-01 0.79708E-01
 0.49401      1.1137      1.8315      2.5161      3.0514      3.3758      3.4988      3.4856      3.4140      3.3439    
  3.3158      3.3439      3.4140      3.4856      3.4988      3.3758      3.0514      2.5161      1.8315      1.1137    
 0.49401     0.79708E-01 0.36183     0.75717      1.3435      2.0150      2.6464      3.1301      3.4126      3.5074    
  3.4792      3.4006      3.3279      3.2992      3.3279      3.4006      3.4792      3.5074      3.4126      3.1301    
  2.6464      2.0150      1.3435     0.75717     0.36183     0.22292     0.75717      1.2388      1.8515      2.4786    
  3.0046      3.3529      3.5088      3.5164      3.4475      3.3629      3.3082      3.3082      3.3629      3.4475    
  3.5164      3.5088      3.3529      3.0047      2.4786      1.8515      1.2388     0.75713     0.49400     0.49401    
  1.3435      1.8515      2.4176      2.9304      3.3022      3.4963      3.5343      3.4772      3.3860      3.3097    
  3.2806      3.3097      3.3860      3.4772      3.5343      3.4963      3.3022      2.9304      2.4176      1.8515    
  1.3435     0.99415     0.87009     0.99414      2.0150      2.4786      2.9304      3.2826      3.4853      3.5405    
  3.4933      3.3995      3.3069      3.2513      3.2513      3.3069      3.3995      3.4933      3.5405      3.4853    
  3.2825      2.9304      2.4786      2.0151      1.6380      1.4274      1.4274      1.6379      2.6464      3.0046    
  3.3022      3.4853      3.5417      3.5001      3.4062      3.3029      3.2262      3.1982      3.2262      3.3029    
  3.4062      3.5001      3.5417      3.4853      3.3022      3.0046      2.6464      2.3065      2.0643      1.9768    
  2.0643      2.3065      3.1301      3.3529      3.4963      3.5405      3.5001      3.4081      3.3003      3.2096    
  3.1588      3.1588      3.2097      3.3003      3.4081      3.5001      3.5405      3.4963      3.3529      3.1301    
  2.8778      2.6603      2.5349      2.5349      2.6603      2.8778      3.4126      3.5088      3.5343      3.4933    
  3.4062      3.3003      3.2039      3.1381      3.1149      3.1381      3.2039      3.3003      3.4062      3.4933    
  3.5343      3.5088      3.4126      3.2668      3.1126      2.9961      2.9529      2.9961      3.1126      3.2668    
  3.5074      3.5164      3.4772      3.3995      3.3029      3.2096      3.1381      3.0998      3.0998      3.1381    
  3.2097      3.3029      3.3995      3.4772      3.5164      3.5075      3.4528      3.3709      3.2913      3.2427    
  3.2427      3.2913      3.3709      3.4527      3.4792      3.4475      3.3860      3.3069      3.2262      3.1588    
  3.1149      3.0998      3.1149      3.1588      3.2262      3.3069      3.3860      3.4475      3.4792      3.4778    
  3.4498      3.4096      3.3753      3.3619      3.3753      3.4096      3.4498      3.4778      3.4006      3.3629    
  3.3097      3.2513      3.1982      3.1588      3.1381      3.1381      3.1588      3.1982      3.2513      3.3097    
  3.3629      3.4006      3.4169      3.4126      3.3946      3.3738      3.3602      3.3602      3.3737      3.3946    
  3.4126      3.4169      3.3279      3.3082      3.2806      3.2513      3.2262      3.2097      3.2039      3.2097    
  3.2262      3.2513      3.2806      3.3082      3.3279      3.3352      3.3293      3.3136      3.2946      3.2795    
  3.2737      3.2795      3.2946      3.3136      3.3292      3.3352      3.2992      3.3082      3.3097      3.3069    
  3.3029      3.3003      3.3003      3.3029      3.3069      3.3097      3.3082      3.2993      3.2811      3.2546    
  3.2231      3.1920      3.1672      3.1534      3.1534      3.1672      3.1920      3.2231      3.2546      3.2811    
  3.3279      3.3629      3.3860      3.3995      3.4062      3.4081      3.4062      3.3995      3.3860      3.3629    
  3.3279      3.2811      3.2254      3.1663      3.1109      3.0659      3.0368      3.0267      3.0368      3.0659    
  3.1109      3.1663      3.2254      3.2811      3.4006      3.4475      3.4772      3.4933      3.5001      3.5001    
  3.4933      3.4772      3.4475      3.4006      3.3352      3.2546      3.1663      3.0805      3.0073      2.9544    
  2.9269      2.9269      2.9544      3.0072      3.0805      3.1663      3.2546      3.3352      3.4792      3.5164    
  3.5343      3.5405      3.5417      3.5405      3.5343      3.5164      3.4792      3.4169      3.3293      3.2231    
  3.1109      3.0073      2.9249      2.8726      2.8547      2.8726      2.9249      3.0073      3.1109      3.2231    
  3.3292      3.4169      3.5074      3.5088      3.4963      3.4853      3.4853      3.4963      3.5088      3.5075    
  3.4778      3.4126      3.3136      3.1920      3.0659      2.9544      2.8726      2.8297      2.8297      2.8726    
  2.9544      3.0659      3.1920      3.3136      3.4126      3.4777      3.4126      3.3529      3.3022      3.2825    
  3.3022      3.3529      3.4126      3.4528      3.4498      3.3946      3.2946      3.1672      3.0368      2.9269    
  2.8547      2.8297      2.8547      2.9269      3.0368      3.1672      3.2946      3.3946      3.4498      3.4528    
  3.1301      3.0047      2.9304      2.9304      3.0046      3.1301      3.2668      3.3709      3.4096      3.3738    
  3.2795      3.1534      3.0267      2.9269      2.8726      2.8726      2.9269      3.0267      3.1534      3.2794    
  3.3737      3.4095      3.3709      3.2669      2.6464      2.4786      2.4176      2.4786      2.6464      2.8778    
  3.1126      3.2913      3.3753      3.3602      3.2737      3.1534      3.0368      2.9544      2.9249      2.9544    
  3.0368      3.1534      3.2737      3.3602      3.3753      3.2913      3.1126      2.8778      2.0150      1.8515    
  1.8515      2.0151      2.3065      2.6603      2.9961      3.2427      3.3619      3.3602      3.2795      3.1672    
  3.0659      3.0072      3.0073      3.0659      3.1672      3.2794      3.3602      3.3619      3.2427      2.9962    
  2.6603      2.3065      1.3435      1.2388      1.3435      1.6380      2.0643      2.5349      2.9529      3.2427    
  3.3753      3.3737      3.2946      3.1920      3.1109      3.0805      3.1109      3.1920      3.2946      3.3737    
  3.3753      3.2427      2.9529      2.5349      2.0643      1.6380     0.75717     0.75713     0.99415      1.4274    
  1.9768      2.5349      2.9961      3.2913      3.4096      3.3946      3.3136      3.2231      3.1663      3.1663    
  3.2231      3.3136      3.3946      3.4095      3.2913      2.9962      2.5349      1.9767      1.4274     0.99420    
 0.36183     0.49400     0.87009      1.4274      2.0643      2.6603      3.1126      3.3709      3.4498      3.4126    
  3.3292      3.2546      3.2254      3.2546      3.3292      3.4126      3.4498      3.3709      3.1126      2.6603    
  2.0643      1.4274     0.87009     0.49400     0.22292     0.49401     0.99414      1.6379      2.3065      2.8778    
  3.2668      3.4527      3.4778      3.4169      3.3352      3.2811      3.2811      3.3352      3.4169      3.4777    
  3.4528      3.2669      2.8778      2.3065      1.6380     0.99420     0.49400     0.22290      1.0026      1.4499    
  2.0150      2.5873      3.0597      3.3628      3.4867      3.4758      3.3977      3.3093      3.2536      3.2535    
  3.3093      3.3978      3.4758      3.4867      3.3628      3.0597      2.5874      2.0150      1.4500      1.0026    
 0.75717     0.75714      1.4499      1.9376      2.4786      2.9655      3.3143      3.4910      3.5181      3.4554    
  3.3618      3.2847      3.2555      3.2847      3.3618      3.4554      3.5181      3.4909      3.3143      2.9655    
  2.4786      1.9376      1.4500      1.1137     0.99420      1.1137      2.0150      2.4786      2.9304      3.2826    
  3.4853      3.5405      3.4933      3.3995      3.3069      3.2513      3.2513      3.3069      3.3995      3.4933    
  3.5405      3.4853      3.2825      2.9304      2.4786      2.0151      1.6380      1.4274      1.4274      1.6379    
  2.5873      2.9655      3.2826      3.4818      3.5495      3.5143      3.4234      3.3212      3.2445      3.2165    
  3.2445      3.3212      3.4234      3.5143      3.5495      3.4818      3.2825      2.9655      2.5874      2.2304    
  1.9768      1.8852      1.9767      2.2303      3.0597      3.3143      3.4853      3.5495      3.5209      3.4348    
  3.3290      3.2383      3.1870      3.1870      3.2383      3.3290      3.4348      3.5209      3.5495      3.4853    
  3.3143      3.0597      2.7767      2.5349      2.3962      2.3961      2.5349      2.7767      3.3628      3.4910    
  3.5405      3.5143      3.4348      3.3314      3.2346      3.1677      3.1440      3.1677      3.2346      3.3314    
  3.4348      3.5143      3.5405      3.4910      3.3628      3.1821      2.9961      2.8575      2.8063      2.8575    
  2.9962      3.1821      3.4867      3.5181      3.4933      3.4234      3.3290      3.2346      3.1610      3.1212    
  3.1212      3.1610      3.2346      3.3290      3.4234      3.4933      3.5181      3.4867      3.4032      3.2913    
  3.1867      3.1240      3.1240      3.1867      3.2913      3.4032      3.4758      3.4554      3.3995      3.3212    
  3.2383      3.1677      3.1212      3.1051      3.1212      3.1677      3.2383      3.3211      3.3995      3.4554    
  3.4758      3.4579      3.4096      3.3492      3.3001      3.2813      3.3001      3.3492      3.4095      3.4579    
  3.3977      3.3618      3.3069      3.2445      3.1870      3.1440      3.1212      3.1212      3.1440      3.1870    
  3.2445      3.3069      3.3618      3.3977      3.4082      3.3946      3.3659      3.3354      3.3159      3.3159    
  3.3354      3.3659      3.3946      3.4082      3.3093      3.2847      3.2513      3.2165      3.1870      3.1677    
  3.1610      3.1677      3.1870      3.2165      3.2513      3.2847      3.3093      3.3193      3.3136      3.2956    
  3.2733      3.2552      3.2483      3.2552      3.2732      3.2956      3.3136      3.3194      3.2536      3.2555    
  3.2513      3.2445      3.2383      3.2346      3.2346      3.2383      3.2445      3.2513      3.2555      3.2536    
  3.2429      3.2231      3.1966      3.1685      3.1451      3.1318      3.1318      3.1451      3.1685      3.1966    
  3.2231      3.2429      3.2535      3.2847      3.3069      3.3212      3.3290      3.3314      3.3290      3.3211    
  3.3069      3.2847      3.2536      3.2134      3.1663      3.1162      3.0686      3.0293      3.0035      2.9945    
  3.0035      3.0294      3.0686      3.1162      3.1663      3.2134      3.3093      3.3618      3.3995      3.4234    
  3.4348      3.4348      3.4234      3.3995      3.3618      3.3093      3.2429      3.1663      3.0858      3.0093    
  2.9446      2.8979      2.8736      2.8736      2.8979      2.9446      3.0093      3.0858      3.1663      3.2429    
  3.3978      3.4554      3.4933      3.5143      3.5209      3.5143      3.4933      3.4554      3.3977      3.3193    
  3.2231      3.1162      3.0093      2.9138      2.8392      2.7921      2.7761      2.7921      2.8392      2.9138    
  3.0093      3.1162      3.2231      3.3194      3.4758      3.5181      3.5405      3.5495      3.5495      3.5405    
  3.5181      3.4758      3.4082      3.3136      3.1966      3.0686      2.9446      2.8392      2.7636      2.7244    
  2.7244      2.7636      2.8392      2.9446      3.0686      3.1966      3.3136      3.4082      3.4867      3.4909    
  3.4853      3.4818      3.4853      3.4910      3.4867      3.4579      3.3946      3.2956      3.1685      3.0293    
  2.8979      2.7921      2.7244      2.7011      2.7244      2.7921      2.8979      3.0294      3.1685      3.2956    
  3.3946      3.4579      3.3628      3.3143      3.2825      3.2825      3.3143      3.3628      3.4032      3.4096    
  3.3659      3.2733      3.1451      3.0035      2.8736      2.7761      2.7244      2.7244      2.7761      2.8736    
  3.0035      3.1451      3.2733      3.3659      3.4096      3.4032      3.0597      2.9655      2.9304      2.9655    
  3.0597      3.1821      3.2913      3.3492      3.3354      3.2552      3.1318      2.9945      2.8736      2.7921    
  2.7636      2.7921      2.8736      2.9945      3.1318      3.2552      3.3353      3.3492      3.2913      3.1821    
  2.5874      2.4786      2.4786      2.5874      2.7767      2.9961      3.1867      3.3001      3.3159      3.2483    
  3.1318      3.0035      2.8979      2.8392      2.8392      2.8979      3.0035      3.1318      3.2483      3.3159    
  3.3001      3.1867      2.9961      2.7767      2.0150      1.9376      2.0151      2.2304      2.5349      2.8575    
  3.1240      3.2813      3.3159      3.2552      3.1451      3.0294      2.9446      2.9138      2.9446      3.0294    
  3.1451      3.2552      3.3159      3.2814      3.1240      2.8575      2.5349      2.2304      1.4500      1.4500    
  1.6380      1.9768      2.3962      2.8063      3.1240      3.3001      3.3354      3.2732      3.1685      3.0686    
  3.0093      3.0093      3.0686      3.1685      3.2733      3.3353      3.3001      3.1240      2.8064      2.3961    
  1.9768      1.6379      1.0026      1.1137      1.4274      1.8852      2.3961      2.8575      3.1867      3.3492    
  3.3659      3.2956      3.1966      3.1162      3.0858      3.1162      3.1966      3.2956      3.3659      3.3492    
  3.1867      2.8575      2.3961      1.8852      1.4274      1.1137     0.75717     0.99420      1.4274      1.9767    
  2.5349      2.9962      3.2913      3.4095      3.3946      3.3136      3.2231      3.1663      3.1663      3.2231    
  3.3136      3.3946      3.4096      3.2913      2.9961      2.5349      1.9768      1.4274     0.99415     0.75713    
 0.75714      1.1137      1.6379      2.2303      2.7767      3.1821      3.4032      3.4579      3.4082      3.3194    
  3.2429      3.2134      3.2429      3.3194      3.4082      3.4579      3.4032      3.1821      2.7767      2.2304    
  1.6379      1.1137     0.75713     0.63125      1.7481      2.1770      2.6464      3.0597      3.3436      3.4718    
  3.4692      3.3914      3.2911      3.2120      3.1825      3.2120      3.2911      3.3914      3.4692      3.4718    
  3.3436      3.0597      2.6464      2.1770      1.7481      1.4500      1.3435      1.4499      2.1770      2.5986    
  3.0046      3.3143      3.4833      3.5164      3.4574      3.3581      3.2637      3.2079      3.2079      3.2637    
  3.3581      3.4574      3.5164      3.4833      3.3143      3.0046      2.5986      2.1770      1.8315      1.6379    
  1.6380      1.8315      2.6464      3.0046      3.3022      3.4853      3.5417      3.5001      3.4062      3.3029    
  3.2262      3.1982      3.2262      3.3029      3.4062      3.5001      3.5417      3.4853      3.3022      3.0046    
  2.6464      2.3065      2.0643      1.9768      2.0643      2.3065      3.0597      3.3143      3.4853      3.5495    
  3.5209      3.4348      3.3290      3.2383      3.1870      3.1870      3.2383      3.3290      3.4348      3.5209    
  3.5495      3.4853      3.3143      3.0597      2.7767      2.5349      2.3962      2.3961      2.5349      2.7767    
  3.3436      3.4833      3.5417      3.5209      3.4443      3.3419      3.2450      3.1777      3.1538      3.1777    
  3.2450      3.3419      3.4443      3.5209      3.5417      3.4833      3.3436      3.1502      2.9529      2.8064    
  2.7524      2.8064      2.9529      3.1502      3.4718      3.5164      3.5001      3.4348      3.3419      3.2472    
  3.1725      3.1320      3.1320      3.1725      3.2472      3.3419      3.4348      3.5001      3.5164      3.4718    
  3.3717      3.2427      3.1240      3.0533      3.0533      3.1240      3.2427      3.3717      3.4692      3.4574    