    1    1    1    1
  0.1660753E+02  0.2863782E-09  0.2863782E-09  0.2863782E-09  0.5000000E-15
  1.000000000000000E-004
  CAR 
 Al                                      
    3  110    6
 
  0.5000000E-01  0.5000000E-01  0.5000000E-01  0.2000000E-02
   1       -3.111944
   2       19.193890
   3       20.253993
   4       20.253993
   5       22.272142
   6       22.272142
 
  0.1500000E+00  0.5000000E-01  0.5000000E-01  0.6000000E-02
   1       -2.751932
   2       16.527398
   3       18.216464
   4       20.585380
   5       22.473292
   6       22.946550
 
  0.2500000E+00  0.5000000E-01  0.5000000E-01  0.6000000E-02
   1       -1.855247
   2       12.625323
   3       17.452663
   4       19.968593
   5       22.278762
   6       22.761671
 
  0.3500000E+00  0.5000000E-01  0.5000000E-01  0.6000000E-02
   1       -0.432380
   2        9.014896
   3       17.154216
   4       19.685908
   5       20.531025
   6       21.879337
 
  0.4500000E+00  0.5000000E-01  0.5000000E-01  0.6000000E-02
   1        1.501520
   2        5.817181
   3       17.322796
   4       19.088861
   5       19.912156
   6       20.488983
 
 -0.4500000E+00  0.5000000E-01  0.5000000E-01  0.6000000E-02
   1        3.061046
   2        3.942747
   3       17.960520
   4       18.170246
   5       19.534842
   6       20.523243
 
 -0.3500000E+00  0.5000000E-01  0.5000000E-01  0.6000000E-02
   1        0.801249
   2        6.834450
   3       17.697964
   4       19.010235
   5       19.089925
   6       21.596609
 
 -0.2500000E+00  0.5000000E-01  0.5000000E-01  0.6000000E-02
   1       -0.964324
   2       10.176604
   3       17.685492
   4       18.998885
   5       20.613229
   6       22.965738
 
 -0.1500000E+00  0.5000000E-01  0.5000000E-01  0.6000000E-02
   1       -2.213257
   2       13.912122
   3       18.126289
   4       19.383486
   5       22.415388
   6       23.184872
 
 -0.5000000E-01  0.5000000E-01  0.5000000E-01  0.6000000E-02
   1       -2.931873
   2       17.881950
   3       19.010928
   4       19.922712
   5       21.799099
   6       23.355344
 
  0.1500000E+00  0.1500000E+00  0.5000000E-01  0.6000000E-02
   1       -2.572147
   2       16.632089
   3       17.808787
   4       18.859404
   5       21.105647
   6       22.587985
 
  0.2500000E+00  0.1500000E+00  0.5000000E-01  0.1200000E-01
   1       -1.855204
   2       14.115763
   3       16.016635
   4       19.195667
   5       20.029124
   6       21.608554
 
  0.3500000E+00  0.1500000E+00  0.5000000E-01  0.1200000E-01
   1       -0.609563
   2       10.481270
   3       15.497272
   4       18.006807
   5       19.036022
   6       23.698031
 
  0.4500000E+00  0.1500000E+00  0.5000000E-01  0.1200000E-01
   1        1.151478
   2        7.164736
   3       15.488897
   4       16.415763
   5       19.116794
   6       22.802015
 
 -0.4500000E+00  0.1500000E+00  0.5000000E-01  0.1200000E-01
   1        3.402792
   2        4.286028
   3       15.255947
   4       16.003615
   5       19.633507
   6       21.726659
 
 -0.3500000E+00  0.1500000E+00  0.5000000E-01  0.1200000E-01
   1        1.850241
   2        6.150144
   3       14.621102
   4       16.948558
   5       20.565576
   6       21.126537
 
 -0.2500000E+00  0.1500000E+00  0.5000000E-01  0.1200000E-01
   1       -0.078999
   2        9.321031
   3       14.474776
   4       18.368051
   5       20.827904
   6       22.068779
 
 -0.1500000E+00  0.1500000E+00  0.5000000E-01  0.1200000E-01
   1       -1.498233
   2       12.811756
   3       14.894841
   4       20.207240
   5       20.964521
   6       22.990296
 
 -0.5000000E-01  0.1500000E+00  0.5000000E-01  0.1200000E-01
   1       -2.392544
   2       15.253345
   3       17.077502
   4       20.138687
   5       21.952645
   6       22.918393
 
  0.2500000E+00  0.2500000E+00  0.5000000E-01  0.6000000E-02
   1       -1.320123
   2       14.532525
   3       15.817187
   4       16.797735
   5       17.422133
   6       19.609575
 
  0.3500000E+00  0.2500000E+00  0.5000000E-01  0.1200000E-01
   1       -0.256034
   2       12.301214
   3       14.274592
   4       15.183319
   5       17.474274
   6       20.129132
 
  0.4500000E+00  0.2500000E+00  0.5000000E-01  0.1200000E-01
   1        1.324862
   2        8.975018
   3       13.330595
   4       14.114914
   5       17.678572
   6       22.640840
 
 -0.4500000E+00  0.2500000E+00  0.5000000E-01  0.1200000E-01
   1        3.401298
   2        5.977763
   3       12.040240
   4       14.408603
   5       18.099109
   6       24.733396
 
 -0.3500000E+00  0.2500000E+00  0.5000000E-01  0.1200000E-01
   1        3.407192
   2        5.954397
   3       11.245975
   4       15.207397
   5       18.956833
   6       24.026429
 
 -0.2500000E+00  0.2500000E+00  0.5000000E-01  0.1200000E-01
   1        1.326505
   2        8.825992
   3       11.075660
   4       16.484057
   5       20.257809
   6       23.588612
 
 -0.1500000E+00  0.2500000E+00  0.5000000E-01  0.1200000E-01
   1       -0.255647
   2       10.659988
   3       12.865316
   4       18.219522
   5       21.860434
   6       22.197254
 
 -0.5000000E-01  0.2500000E+00  0.5000000E-01  0.1200000E-01
   1       -1.320043
   2       11.476089
   3       16.426954
   4       19.753237
   5       20.385481
   6       23.678799
 
  0.3500000E+00  0.3500000E+00  0.5000000E-01  0.6000000E-02
   1        0.623479
   2       12.670692
   3       13.068930
   4       14.430199
   5       15.321510
   6       18.308799
 
  0.4500000E+00  0.3500000E+00  0.5000000E-01  0.1200000E-01
   1        2.017167
   2       10.668248
   3       11.170801
   4       13.203332
   5       16.332678
   6       19.107720
 
 -0.4500000E+00  0.3500000E+00  0.5000000E-01  0.1200000E-01
   1        3.896137
   2        8.113003
   3        9.256090
   4       13.291994
   5       16.873111
   6       21.946621
 
 -0.3500000E+00  0.3500000E+00  0.5000000E-01  0.1200000E-01
   1        5.440600
   2        6.155325
   3        8.388972
   4       13.926184
   5       17.626269
   6       25.384589
 
 -0.2500000E+00  0.3500000E+00  0.5000000E-01  0.1200000E-01
   1        3.235281
   2        7.320603
   3        9.573465
   4       15.048338
   5       18.807979
   6       25.351248
 
 -0.1500000E+00  0.3500000E+00  0.5000000E-01  0.1200000E-01
   1        1.501302
   2        7.475395
   3       12.722130
   4       16.640254
   5       20.381173
   6       22.302700
 
 -0.5000000E-01  0.3500000E+00  0.5000000E-01  0.1200000E-01
   1        0.273745
   2        8.008768
   3       16.274437
   4       18.661821
   5       19.677718
   6       22.088064
 
  0.4500000E+00  0.4500000E+00  0.5000000E-01  0.6000000E-02
   1        3.209662
   2        8.539455
   3       12.224036
   4       13.658756
   5       14.483289
   6       17.532470
 
 -0.4500000E+00  0.4500000E+00  0.5000000E-01  0.1200000E-01
   1        4.796632
   2        6.977500
   3       10.648180
   4       12.718508
   5       15.837051
   6       18.648391
 
 -0.3500000E+00  0.4500000E+00  0.5000000E-01  0.1200000E-01
   1        5.300283
   2        7.431897
   3        8.052418
   4       13.130010
   5       16.709075
   6       21.801853
 
 -0.2500000E+00  0.4500000E+00  0.5000000E-01  0.1200000E-01
   1        4.741464
   2        5.644974
   3       10.080321
   4       14.087587
   5       17.787502
   6       25.399276
 
 -0.1500000E+00  0.4500000E+00  0.5000000E-01  0.1200000E-01
   1        3.745208
   2        4.623512
   3       13.185201
   4       15.524681
   5       19.241625
   6       22.797814
 
 -0.5000000E-01  0.4500000E+00  0.5000000E-01  0.1200000E-01
   1        2.372249
   2        4.965114
   3       16.593951
   4       17.403013
   5       20.006657
   6       20.852633
 
 -0.4500000E+00 -0.4500000E+00  0.5000000E-01  0.6000000E-02
   1        4.628051
   2        6.805649
   3       12.056821
   4       13.504581
   5       14.314857
   6       17.370050
 
 -0.3500000E+00 -0.4500000E+00  0.5000000E-01  0.1200000E-01
   1        3.381564
   2        8.703663
   3       10.816906
   4       12.880116
   5       16.002839
   6       18.803841
 
 -0.2500000E+00 -0.4500000E+00  0.5000000E-01  0.1200000E-01
   1        2.537764
   2        8.467238
   3       11.213837
   4       13.616148
   5       17.198485
   6       22.229532
 
 -0.1500000E+00 -0.4500000E+00  0.5000000E-01  0.1200000E-01
   1        2.196469
   2        6.486751
   3       14.143917
   4       14.900195
   5       18.553147
   6       23.706397
 
 -0.3500000E+00 -0.3500000E+00  0.5000000E-01  0.6000000E-02
   1        1.843329
   2       10.531125
   3       12.558138
   4       13.967457
   5       14.818996
   6       17.848225
 
 -0.2500000E+00 -0.3500000E+00  0.5000000E-01  0.1200000E-01
   1        0.799216
   2       11.631291
   3       12.836547
   4       13.702006
   5       16.823221
   6       19.553350
 
 -0.1500000E+00 -0.3500000E+00  0.5000000E-01  0.1200000E-01
   1        0.273259
   2        9.646720
   3       14.697768
   4       15.652985
   5       18.303666
   6       23.160597
 
 -0.2500000E+00 -0.2500000E+00  0.5000000E-01  0.6000000E-02
   1       -0.432885
   2       13.709197
   3       14.987543
   4       15.047870
   5       15.988660
   6       18.903339
 
 -0.1500000E+00 -0.2500000E+00  0.5000000E-01  0.1200000E-01
   1       -1.142106
   2       13.129591
   3       15.080694
   4       17.571393
   5       18.272033
   6       20.816770
 
 -0.1500000E+00 -0.1500000E+00  0.5000000E-01  0.6000000E-02
   1       -2.034142
   2       15.507840
   3       16.740741
   4       17.775868
   5       19.891502
   6       20.438994
 
  0.1500000E+00  0.1500000E+00  0.1500000E+00  0.2000000E-02
   1       -2.572094
   2       15.189132
   3       19.329722
   4       19.329722
   5       22.484939
   6       23.777815
 
  0.2500000E+00  0.1500000E+00  0.1500000E+00  0.6000000E-02
   1       -2.034076
   2       13.961447
   3       15.960460
   4       21.215733
   5       22.020783
   6       23.538385
 
  0.3500000E+00  0.1500000E+00  0.1500000E+00  0.6000000E-02
   1       -0.964330
   2       11.656449
   3       13.821360
   4       19.987537
   5       22.031611
   6       22.296897
 
  0.4500000E+00  0.1500000E+00  0.1500000E+00  0.6000000E-02
   1        0.625446
   2        8.317047
   3       13.531090
   4       18.317845
   5       20.292445
   6       22.245460
 
 -0.4500000E+00  0.1500000E+00  0.1500000E+00  0.6000000E-02
   1        2.718228
   2        5.300047
   3       13.835250
   4       17.078892
   5       18.968949
   6       22.562738
 
 -0.3500000E+00  0.1500000E+00  0.1500000E+00  0.6000000E-02
   1        2.717126
   2        5.304956
   3       14.644590
   4       16.299518
   5       18.111421
   6       23.325586
 
 -0.2500000E+00  0.1500000E+00  0.1500000E+00  0.6000000E-02
   1        0.625081
   2        8.336336
   3       15.938875
   4       15.984314
   5       17.727103
   6       24.524791
 
 -0.1500000E+00  0.1500000E+00  0.1500000E+00  0.6000000E-02
   1       -0.964366
   2       11.781423
   3       16.132568
   4       17.644158
   5       17.824336
   6       22.172527
 
  0.2500000E+00  0.2500000E+00  0.1500000E+00  0.6000000E-02
   1       -1.676645
   2       12.770465
   3       17.055990
   4       18.621959
   5       20.161557
   6       22.934239
 
  0.3500000E+00  0.2500000E+00  0.1500000E+00  0.1200000E-01
   1       -0.786845
   2       11.819408
   3       13.949981
   4       17.860857
   5       20.147675
   6       22.371593
 
  0.4500000E+00  0.2500000E+00  0.1500000E+00  0.1200000E-01
   1        0.625271
   2        9.826274
   3       12.048631
   4       15.948745
   5       21.438699
   6       22.524028
 
 -0.4500000E+00  0.2500000E+00  0.1500000E+00  0.1200000E-01
   1        2.543898
   2        6.799594
   3       12.059497
   4       14.498799
   5       21.148613
   6       21.926824
 
 -0.3500000E+00  0.2500000E+00  0.1500000E+00  0.1200000E-01
   1        4.081473
   2        4.966123
   3       12.661314
   4       13.555030
   5       20.220503
   6       22.549276
 
 -0.2500000E+00  0.2500000E+00  0.1500000E+00  0.1200000E-01
   1        1.848442
   2        7.808680
   3       12.991260
   4       13.897842
   5       19.674432
   6       23.514478
 
 -0.1500000E+00  0.2500000E+00  0.1500000E+00  0.1200000E-01
   1        0.097015
   2       10.987867
   3       13.140616
   4       15.495633
   5       19.386904
   6       21.757856
 
  0.3500000E+00  0.3500000E+00  0.1500000E+00  0.6000000E-02
   1       -0.079399
   2       10.950685
   3       15.307750
   4       15.359603
   5       16.972297
   6       21.490606
 
  0.4500000E+00  0.3500000E+00  0.1500000E+00  0.1200000E-01
   1        1.149727
   2       10.319795
   3       12.441249
   4       13.271745
   5       18.757328
   6       21.225332
 
 -0.4500000E+00  0.3500000E+00  0.1500000E+00  0.1200000E-01
   1        2.884240
   2        8.654212
   3       10.810943
   4       11.661200
   5       20.393471
   6       22.621244
 
 -0.3500000E+00  0.3500000E+00  0.1500000E+00  0.1200000E-01
   1        5.080876
   2        5.960322
   3       10.354007
   4       11.328429
   5       21.115740
   6       23.478064
 
 -0.2500000E+00  0.3500000E+00  0.1500000E+00  0.1200000E-01
   1        3.574170
   2        7.653972
   3        9.888124
   4       12.251398
   5       22.043455
   6       22.717850
 
 -0.1500000E+00  0.3500000E+00  0.1500000E+00  0.1200000E-01
   1        1.673920
   2        9.157505
   3       11.378488
   4       13.716355
   5       20.853669
   6       22.836045
 
  0.4500000E+00  0.4500000E+00  0.1500000E+00  0.6000000E-02
   1        2.190804
   2        9.764644
   3       10.897842
   4       14.278480
   5       15.808527
   6       20.485678
 
 -0.4500000E+00  0.4500000E+00  0.1500000E+00  0.1200000E-01
   1        3.725050
   2        9.006332
   3        9.525090
   4       11.725910
   5       17.953349
   6       20.519709
 
 -0.3500000E+00  0.4500000E+00  0.1500000E+00  0.1200000E-01
   1        5.636135
   2        7.774175
   3        8.213156
   4       10.455070
   5       19.922162
   6       22.264286
 
 -0.2500000E+00  0.4500000E+00  0.1500000E+00  0.1200000E-01
   1        5.758027
   2        6.488704
   3        8.708342
   4       11.124056
   5       20.972057
   6       24.673258
 
 -0.1500000E+00  0.4500000E+00  0.1500000E+00  0.1200000E-01
   1        3.745213
   2        6.291986
   3       11.520293
   4       12.446984
   5       21.368279
   6       22.340146
 
 -0.4500000E+00 -0.4500000E+00  0.1500000E+00  0.6000000E-02
   1        4.964764
   2        7.144058
   3        9.306523
   4       13.815265
   5       15.296859
   6       20.037271
 
 -0.3500000E+00 -0.4500000E+00  0.1500000E+00  0.1200000E-01
   1        5.132899
   2        7.315108
   3        9.334257
   4       11.555277
   5       17.790388
   6       20.371872
 
 -0.2500000E+00 -0.4500000E+00  0.1500000E+00  0.1200000E-01
   1        4.238459
   2        8.311677
   3        9.513867
   4       10.660988
   5       20.079688
   6       22.391834
 
 -0.3500000E+00 -0.3500000E+00  0.1500000E+00  0.6000000E-02
   1        3.553082
   2        8.836933
   3        9.506135
   4       13.969798
   5       15.468492
   6       20.189107
 
 -0.2500000E+00 -0.3500000E+00  0.1500000E+00  0.1200000E-01
   1        2.364533
   2        9.812023
   3       11.002977
   4       12.086383
   5       18.276741
   6       20.807736
 
 -0.2500000E+00 -0.2500000E+00  0.1500000E+00  0.6000000E-02
   1        0.974760
   2       10.281293
   3       13.029711
   4       14.742469
   5       16.313507
   6       20.924733
 
  0.2500000E+00  0.2500000E+00  0.2500000E+00  0.2000000E-02
   1       -1.498346
   2       11.331741
   3       18.757340
   4       18.757340
   5       22.219494
   6       22.607432
 
  0.3500000E+00  0.2500000E+00  0.2500000E+00  0.6000000E-02
   1       -0.786800
   2       10.321100
   3       15.410304
   4       20.119860
   5       21.018661
   6       22.041450
 
  0.4500000E+00  0.2500000E+00  0.2500000E+00  0.6000000E-02
   1        0.449607
   2        9.660829
   3       11.898859
   4       18.162185
   5       20.183814
   6       23.603889
 
 -0.4500000E+00  0.2500000E+00  0.2500000E+00  0.6000000E-02
   1        2.198086
   2        7.990390
   3       10.246759
   4       16.614250
   5       18.555404
   6       25.221290
 
 -0.3500000E+00  0.2500000E+00  0.2500000E+00  0.6000000E-02
   1        4.426748
   2        5.283743
   3       10.583814
   4       15.525291
   5       17.353441
   6       25.691044
 
 -0.2500000E+00  0.2500000E+00  0.2500000E+00  0.6000000E-02
   1        2.883611
   2        7.152987
   3       11.549826
   4       14.900788
   5       16.619577
   6       23.948877
 
  0.3500000E+00  0.3500000E+00  0.2500000E+00  0.6000000E-02
   1       -0.255613
   2        9.176008
   3       16.759246
   4       18.274776
   5       18.432442
   6       23.733614
 
  0.4500000E+00  0.3500000E+00  0.2500000E+00  0.1200000E-01
   1        0.800883
   2        8.482622
   3       13.670845
   4       16.105434
   5       20.243257
   6       22.714094
 
 -0.4500000E+00  0.3500000E+00  0.2500000E+00  0.1200000E-01
   1        2.370383
   2        8.156715
   3       10.405256
   4       14.335221
   5       21.060462
   6       23.107773
 
 -0.3500000E+00  0.3500000E+00  0.2500000E+00  0.1200000E-01
   1        4.430088
   2        6.818393
   3        9.061406
   4       13.037914
   5       19.790936
   6       25.011695
 
 -0.2500000E+00  0.3500000E+00  0.2500000E+00  0.1200000E-01
   1        4.408398
   2        6.960571
   3        9.736146
   4       12.247162
   5       18.910288
   6       23.809405
 
  0.4500000E+00  0.4500000E+00  0.2500000E+00  0.6000000E-02
   1        1.674162
   2        7.661425
   3       13.681020
   4       15.364641
   5       17.106990
   6       24.322227
 
 -0.4500000E+00  0.4500000E+00  0.2500000E+00  0.1200000E-01
   1        3.056873
   2        7.301284
   3       11.669841
   4       12.605818
   5       19.219370
   6       23.936098
 
 -0.3500000E+00  0.4500000E+00  0.2500000E+00  0.1200000E-01
   1        4.919473
   2        7.317599
   3        9.473018
   4       10.374040
   5       22.318821
   6       23.239664
 
 -0.2500000E+00  0.4500000E+00  0.2500000E+00  0.1200000E-01
   1        6.301983
   2        7.141843
   3        8.457180
   4        9.536523
   5       22.183980
   6       23.996740
 
 -0.4500000E+00 -0.4500000E+00  0.2500000E+00  0.6000000E-02
   1        4.237568
   2        6.811662
   3        9.581174
   4       14.592183
   5       16.288379
   6       23.690966
 
 -0.3500000E+00 -0.4500000E+00  0.2500000E+00  0.1200000E-01
   1        5.799493
   2        6.772962
   3        8.056815
   4       12.077363
   5       18.753763
   6       23.699342
 
 -0.3500000E+00 -0.3500000E+00  0.2500000E+00  0.6000000E-02
   1        5.631905
   2        6.622042
   3        7.894297
   4       14.437202
   5       16.119556
   6       23.554965
 
  0.3500000E+00  0.3500000E+00  0.3500000E+00  0.2000000E-02
   1        0.097640
   2        7.846693
   3       18.627573
   4       18.627573
   5       20.972188
   6       20.972188
 
  0.4500000E+00  0.3500000E+00  0.3500000E+00  0.6000000E-02
   1        0.976516
   2        6.997833
   3       15.403696
   4       18.628152
   5       20.460536
   6       20.998206
 
 -0.4500000E+00  0.3500000E+00  0.3500000E+00  0.6000000E-02
   1        2.371795
   2        6.631440
   3       11.907832
   4       16.770195
   5       18.699477
   6       23.827994
 
 -0.3500000E+00  0.3500000E+00  0.3500000E+00  0.6000000E-02
   1        4.263609
   2        6.651322
   3        8.898458
   4       15.369967
   5       17.193304
   6       27.088500
 
  0.4500000E+00  0.4500000E+00  0.3500000E+00  0.6000000E-02
   1        1.676008
   2        5.985872
   3       16.851619
   4       16.921151
   5       18.634162
   6       22.381994
 
 -0.4500000E+00  0.4500000E+00  0.3500000E+00  0.1200000E-01
   1        2.889801
   2        5.469992
   3       13.957313
   4       14.833053
   5       20.596449
   6       21.521120
 
 -0.3500000E+00  0.4500000E+00  0.3500000E+00  0.1200000E-01
   1        4.592776
   2        5.453716
   3       10.737718
   4       13.204863
   5       19.937456
   6       23.745553
 
 -0.4500000E+00 -0.4500000E+00  0.3500000E+00  0.6000000E-02
   1        3.910529
   2        4.799771
   3       12.538488
   4       15.836025
   5       17.666137
   6       24.439982
 
  0.4500000E+00  0.4500000E+00  0.4500000E+00  0.2000000E-02
   1        2.198208
   2        4.794946
   3       18.942426
   4       18.942426
   5       19.746590
   6       19.746590
 
 -0.4500000E+00  0.4500000E+00  0.4500000E+00  0.6000000E-02
   1        3.232856
   2        4.114201
   3       15.889778
   4       17.547427
   5       19.315179
   6       21.464424
