       N       E                     dE             d eps       ncg     rms          rms(c)
DAV:   1    -0.321099550026E+01   -0.32110E+01   -0.56762E+02  1770   0.133E+02
DAV:   2    -0.370727179197E+01   -0.49628E+00   -0.45475E+00  1800   0.138E+01
DAV:   3    -0.370902681283E+01   -0.17550E-02   -0.17549E-02  1662   0.769E-01
DAV:   4    -0.370902804130E+01   -0.12285E-05   -0.12288E-05  1818   0.207E-02
DAV:   5    -0.370902804373E+01   -0.24384E-08   -0.21965E-08  1668   0.616E-04    0.905E-01
DAV:   6    -0.369735780157E+01    0.11670E-01   -0.16012E-03  1434   0.221E-01    0.564E-01
DAV:   7    -0.368964743979E+01    0.77104E-02   -0.44548E-03  1428   0.405E-01    0.267E-02
DAV:   8    -0.368965549411E+01   -0.80543E-05   -0.21859E-05  1890   0.374E-02    0.689E-03
DAV:   9    -0.368965696482E+01   -0.14707E-05   -0.18844E-07  1236   0.295E-03    0.994E-04
DAV:  10    -0.368965669140E+01    0.27342E-06   -0.75200E-09   828   0.653E-04
   1 F= -.36896567E+01 E0= -.36895723E+01  d E =-.253244E-03
