 vasp.5.3.2 13Sep12 (build Jun 30 2016 14:08:18) complex                        
  
 executed on             LinuxIFC date 2017.11.09  16:16:57
 running on    2 total cores
 distrk:  each k-point on    2 cores,    1 groups
 distr:  one band on NCORES_PER_BAND=   1 cores,    2 groups


--------------------------------------------------------------------------------------------------------


 INCAR:
 POTCAR:    PAW Al                                
 POTCAR:    PAW Al                                
   VRHFIN =Al: s2p1                                                             
   LEXCH  = 91                                                                  
   EATOM  =    53.6910 eV,    3.9462 Ry                                         
                                                                                
   TITEL  = PAW Al                                                              
   LULTRA =        F    use ultrasoft PP ?                                      
   IUNSCR =        1    unscreen: 0-lin 1-nonlin 2-no                           
   RPACOR =    1.500    partial core radius                                     
   POMASS =   26.982; ZVAL   =    3.000    mass and valenz                      
   RCORE  =    1.900    outmost cutoff radius                                   
   RWIGS  =    2.650; RWIGS  =    1.402    wigner-seitz radius (au A)           
   ENMAX  =  240.437; ENMIN  =  180.327 eV                                      
   ICORE  =        2    local potential                                         
   LCOR   =        T    correct aug charges                                     
   LPAW   =        T    paw PP                                                  
   EAUG   =  291.052                                                            
   DEXC   =    -.017                                                            
   RMAX   =    2.974    core radius for proj-oper                               
   RAUG   =    1.300    factor for augmentation sphere                          
   RDEP   =    1.966    core radius for depl-charge                             
   QCUT   =   -4.204; QGAM   =    8.408    optimization parameters              
                                                                                
   Description                                                                  
     l     E      TYP  RCUT    TYP  RCUT                                        
     0   .000     23  1.900                                                     
     0   .000     23  1.900                                                     
     1   .000     23  1.900                                                     
     1  1.000     23  1.900                                                     
     2   .000      7  1.900                                                     
  local pseudopotential read in
  partial core-charges read in
  atomic valenz-charges read in
  non local Contribution for L=           0  read in
    real space projection operators read in
  non local Contribution for L=           0  read in
    real space projection operators read in
  non local Contribution for L=           1  read in
    real space projection operators read in
  non local Contribution for L=           1  read in
    real space projection operators read in
    PAW grid and wavefunctions read in
 
   number of l-projection  operators is LMAX  =           4
   number of lm-projection operators is LMMAX =           8
 
  PAW Al                                :
 energy of atom  1       EATOM=  -53.6910
 kinetic energy error for atom=    0.0030 (will be added to EATOM!!)
 
 
 POSCAR: Al                                      
  positions in direct lattice
  No initial velocities read in
 exchange correlation table for  LEXCH =        7
   RHO(1)=    0.500       N(1)  =     2000
   RHO(2)=  100.500       N(2)  =     4000
 


--------------------------------------------------------------------------------------------------------


 ion  position               nearest neighbor table
   1  0.000  0.000  0.000-
 
  LATTYP: Found a face centered cubic cell.
 ALAT       =     4.0500000000
  
  Lattice vectors:
  
 A1 = (   0.0000000000,   2.0250000000,   2.0250000000)
 A2 = (   2.0250000000,   0.0000000000,   2.0250000000)
 A3 = (   2.0250000000,   2.0250000000,   0.0000000000)


Analysis of symmetry for initial positions (statically):
=====================================================================
 Subroutine PRICEL returns:
 Original cell was already a primitive cell.
 

 Routine SETGRP: Setting up the symmetry group for a 
 face centered cubic supercell.


 Subroutine GETGRP returns: Found 48 space group operations
 (whereof 48 operations were pure point group operations)
 out of a pool of 48 trial point group operations.


The static configuration has the point symmetry O_h .


Analysis of symmetry for dynamics (positions and initial velocities):
=====================================================================
 Subroutine PRICEL returns:
 Original cell was already a primitive cell.
 

 Routine SETGRP: Setting up the symmetry group for a 
 face centered cubic supercell.


 Subroutine GETGRP returns: Found 48 space group operations
 (whereof 48 operations were pure point group operations)
 out of a pool of 48 trial point group operations.


The dynamic configuration has the point symmetry O_h .
 
 
 KPOINTS: 10x10x10                                

Automatic generation of k-mesh.
Space group operators:
 irot       det(A)        alpha          n_x          n_y          n_z        tau_x        tau_y        tau_z
    1     1.000000     0.000001     1.000000     0.000000     0.000000     0.000000     0.000000     0.000000
    2    -1.000000     0.000001     1.000000     0.000000     0.000000     0.000000     0.000000     0.000000
    3     1.000000   120.000000    -0.577350    -0.577350    -0.577350     0.000000     0.000000     0.000000
    4    -1.000000   120.000000    -0.577350    -0.577350    -0.577350     0.000000     0.000000     0.000000
    5     1.000000   120.000000     0.577350     0.577350     0.577350     0.000000     0.000000     0.000000
    6    -1.000000   120.000000     0.577350     0.577350     0.577350     0.000000     0.000000     0.000000
    7     1.000000    90.000000     0.000000     0.000000    -1.000000     0.000000     0.000000     0.000000
    8    -1.000000    90.000000     0.000000     0.000000    -1.000000     0.000000     0.000000     0.000000
    9     1.000000   180.000000     0.000000     0.707107     0.707107     0.000000     0.000000     0.000000
   10    -1.000000   180.000000     0.000000     0.707107     0.707107     0.000000     0.000000     0.000000
   11     1.000000    90.000000     0.000000     1.000000     0.000000     0.000000     0.000000     0.000000
   12    -1.000000    90.000000     0.000000     1.000000     0.000000     0.000000     0.000000     0.000000
   13     1.000000   180.000000     0.000000     0.000000     1.000000     0.000000     0.000000     0.000000
   14    -1.000000   180.000000     0.000000     0.000000     1.000000     0.000000     0.000000     0.000000
   15     1.000000   120.000000    -0.577350     0.577350     0.577350     0.000000     0.000000     0.000000
   16    -1.000000   120.000000    -0.577350     0.577350     0.577350     0.000000     0.000000     0.000000
   17     1.000000   120.000000    -0.577350     0.577350    -0.577350     0.000000     0.000000     0.000000
   18    -1.000000   120.000000    -0.577350     0.577350    -0.577350     0.000000     0.000000     0.000000
   19     1.000000    90.000000     0.000000     0.000000     1.000000     0.000000     0.000000     0.000000
   20    -1.000000    90.000000     0.000000     0.000000     1.000000     0.000000     0.000000     0.000000
   21     1.000000    90.000000    -1.000000     0.000000     0.000000     0.000000     0.000000     0.000000
   22    -1.000000    90.000000    -1.000000     0.000000     0.000000     0.000000     0.000000     0.000000
   23     1.000000   180.000000     0.707107     0.000000     0.707107     0.000000     0.000000     0.000000
   24    -1.000000   180.000000     0.707107     0.000000     0.707107     0.000000     0.000000     0.000000
   25     1.000000   120.000000     0.577350    -0.577350     0.577350     0.000000     0.000000     0.000000
   26    -1.000000   120.000000     0.577350    -0.577350     0.577350     0.000000     0.000000     0.000000
   27     1.000000   120.000000    -0.577350    -0.577350     0.577350     0.000000     0.000000     0.000000
   28    -1.000000   120.000000    -0.577350    -0.577350     0.577350     0.000000     0.000000     0.000000
   29     1.000000   180.000000     1.000000     0.000000     0.000000     0.000000     0.000000     0.000000
   30    -1.000000   180.000000     1.000000     0.000000     0.000000     0.000000     0.000000     0.000000
   31     1.000000    90.000000     0.000000    -1.000000     0.000000     0.000000     0.000000     0.000000
   32    -1.000000    90.000000     0.000000    -1.000000     0.000000     0.000000     0.000000     0.000000
   33     1.000000   180.000000     0.707107     0.707107     0.000000     0.000000     0.000000     0.000000
   34    -1.000000   180.000000     0.707107     0.707107     0.000000     0.000000     0.000000     0.000000
   35     1.000000    90.000000     1.000000     0.000000     0.000000     0.000000     0.000000     0.000000
   36    -1.000000    90.000000     1.000000     0.000000     0.000000     0.000000     0.000000     0.000000
   37     1.000000   120.000000     0.577350    -0.577350    -0.577350     0.000000     0.000000     0.000000
   38    -1.000000   120.000000     0.577350    -0.577350    -0.577350     0.000000     0.000000     0.000000
   39     1.000000   180.000000     0.000000     1.000000     0.000000     0.000000     0.000000     0.000000
   40    -1.000000   180.000000     0.000000     1.000000     0.000000     0.000000     0.000000     0.000000
   41     1.000000   120.000000     0.577350     0.577350    -0.577350     0.000000     0.000000     0.000000
   42    -1.000000   120.000000     0.577350     0.577350    -0.577350     0.000000     0.000000     0.000000
   43     1.000000   180.000000     0.000000    -0.707107     0.707107     0.000000     0.000000     0.000000
   44    -1.000000   180.000000     0.000000    -0.707107     0.707107     0.000000     0.000000     0.000000
   45     1.000000   180.000000     0.707107    -0.707107     0.000000     0.000000     0.000000     0.000000
   46    -1.000000   180.000000     0.707107    -0.707107     0.000000     0.000000     0.000000     0.000000
   47     1.000000   180.000000     0.707107     0.000000    -0.707107     0.000000     0.000000     0.000000
   48    -1.000000   180.000000     0.707107     0.000000    -0.707107     0.000000     0.000000     0.000000
 
 Subroutine IBZKPT returns following result:
 ===========================================
 
 Found    110 irreducible k-points:
 
 Following reciprocal coordinates:
            Coordinates               Weight
  0.050000  0.050000  0.050000     96.000000
  0.150000  0.050000  0.050000    288.000000
  0.250000  0.050000  0.050000    288.000000
  0.350000  0.050000  0.050000    288.000000
  0.450000  0.050000  0.050000    288.000000
 -0.450000  0.050000  0.050000    288.000000
 -0.350000  0.050000  0.050000    288.000000
 -0.250000  0.050000  0.050000    288.000000
 -0.150000  0.050000  0.050000    288.000000
 -0.050000  0.050000  0.050000    288.000000
  0.150000  0.150000  0.050000    288.000000
  0.250000  0.150000  0.050000    576.000000
  0.350000  0.150000  0.050000    576.000000
  0.450000  0.150000  0.050000    576.000000
 -0.450000  0.150000  0.050000    576.000000
 -0.350000  0.150000  0.050000    576.000000
 -0.250000  0.150000  0.050000    576.000000
 -0.150000  0.150000  0.050000    576.000000
 -0.050000  0.150000  0.050000    576.000000
  0.250000  0.250000  0.050000    288.000000
  0.350000  0.250000  0.050000    576.000000
  0.450000  0.250000  0.050000    576.000000
 -0.450000  0.250000  0.050000    576.000000
 -0.350000  0.250000  0.050000    576.000000
 -0.250000  0.250000  0.050000    576.000000
 -0.150000  0.250000  0.050000    576.000000
 -0.050000  0.250000  0.050000    576.000000
  0.350000  0.350000  0.050000    288.000000
  0.450000  0.350000  0.050000    576.000000
 -0.450000  0.350000  0.050000    576.000000
 -0.350000  0.350000  0.050000    576.000000
 -0.250000  0.350000  0.050000    576.000000
 -0.150000  0.350000  0.050000    576.000000
 -0.050000  0.350000  0.050000    576.000000
  0.450000  0.450000  0.050000    288.000000
 -0.450000  0.450000  0.050000    576.000000
 -0.350000  0.450000  0.050000    576.000000
 -0.250000  0.450000  0.050000    576.000000
 -0.150000  0.450000  0.050000    576.000000
 -0.050000  0.450000  0.050000    576.000000
 -0.450000 -0.450000  0.050000    288.000000
 -0.350000 -0.450000  0.050000    576.000000
 -0.250000 -0.450000  0.050000    576.000000
 -0.150000 -0.450000  0.050000    576.000000
 -0.350000 -0.350000  0.050000    288.000000
 -0.250000 -0.350000  0.050000    576.000000
 -0.150000 -0.350000  0.050000    576.000000
 -0.250000 -0.250000  0.050000    288.000000
 -0.150000 -0.250000  0.050000    576.000000
 -0.150000 -0.150000  0.050000    288.000000
  0.150000  0.150000  0.150000     96.000000
  0.250000  0.150000  0.150000    288.000000
  0.350000  0.150000  0.150000    288.000000
  0.450000  0.150000  0.150000    288.000000
 -0.450000  0.150000  0.150000    288.000000
 -0.350000  0.150000  0.150000    288.000000
 -0.250000  0.150000  0.150000    288.000000
 -0.150000  0.150000  0.150000    288.000000
  0.250000  0.250000  0.150000    288.000000
  0.350000  0.250000  0.150000    576.000000
  0.450000  0.250000  0.150000    576.000000
 -0.450000  0.250000  0.150000    576.000000
 -0.350000  0.250000  0.150000    576.000000
 -0.250000  0.250000  0.150000    576.000000
 -0.150000  0.250000  0.150000    576.000000
  0.350000  0.350000  0.150000    288.000000
  0.450000  0.350000  0.150000    576.000000
 -0.450000  0.350000  0.150000    576.000000
 -0.350000  0.350000  0.150000    576.000000
 -0.250000  0.350000  0.150000    576.000000
 -0.150000  0.350000  0.150000    576.000000
  0.450000  0.450000  0.150000    288.000000
 -0.450000  0.450000  0.150000    576.000000
 -0.350000  0.450000  0.150000    576.000000
 -0.250000  0.450000  0.150000    576.000000
 -0.150000  0.450000  0.150000    576.000000
 -0.450000 -0.450000  0.150000    288.000000
 -0.350000 -0.450000  0.150000    576.000000
 -0.250000 -0.450000  0.150000    576.000000
 -0.350000 -0.350000  0.150000    288.000000
 -0.250000 -0.350000  0.150000    576.000000
 -0.250000 -0.250000  0.150000    288.000000
  0.250000  0.250000  0.250000     96.000000
  0.350000  0.250000  0.250000    288.000000
  0.450000  0.250000  0.250000    288.000000
 -0.450000  0.250000  0.250000    288.000000
 -0.350000  0.250000  0.250000    288.000000
 -0.250000  0.250000  0.250000    288.000000
  0.350000  0.350000  0.250000    288.000000
  0.450000  0.350000  0.250000    576.000000
 -0.450000  0.350000  0.250000    576.000000
 -0.350000  0.350000  0.250000    576.000000
 -0.250000  0.350000  0.250000    576.000000
  0.450000  0.450000  0.250000    288.000000
 -0.450000  0.450000  0.250000    576.000000
 -0.350000  0.450000  0.250000    576.000000
 -0.250000  0.450000  0.250000    576.000000
 -0.450000 -0.450000  0.250000    288.000000
 -0.350000 -0.450000  0.250000    576.000000
 -0.350000 -0.350000  0.250000    288.000000
  0.350000  0.350000  0.350000     96.000000
  0.450000  0.350000  0.350000    288.000000
 -0.450000  0.350000  0.350000    288.000000
 -0.350000  0.350000  0.350000    288.000000
  0.450000  0.450000  0.350000    288.000000
 -0.450000  0.450000  0.350000    576.000000
 -0.350000  0.450000  0.350000    576.000000
 -0.450000 -0.450000  0.350000    288.000000
  0.450000  0.450000  0.450000     96.000000
 -0.450000  0.450000  0.450000    288.000000
 
 Following cartesian coordinates:
            Coordinates               Weight
  0.050000  0.050000  0.050000     96.000000
 -0.050000  0.150000  0.150000    288.000000
 -0.150000  0.250000  0.250000    288.000000
 -0.250000  0.350000  0.350000    288.000000
 -0.350000  0.450000  0.450000    288.000000
  0.550000 -0.450000 -0.450000    288.000000
  0.450000 -0.350000 -0.350000    288.000000
  0.350000 -0.250000 -0.250000    288.000000
  0.250000 -0.150000 -0.150000    288.000000
  0.150000 -0.050000 -0.050000    288.000000
  0.050000  0.050000  0.250000    288.000000
 -0.050000  0.150000  0.350000    576.000000
 -0.150000  0.250000  0.450000    576.000000
 -0.250000  0.350000  0.550000    576.000000
  0.650000 -0.550000 -0.350000    576.000000
  0.550000 -0.450000 -0.250000    576.000000
  0.450000 -0.350000 -0.150000    576.000000
  0.350000 -0.250000 -0.050000    576.000000
  0.250000 -0.150000  0.050000    576.000000
  0.050000  0.050000  0.450000    288.000000
 -0.050000  0.150000  0.550000    576.000000
 -0.150000  0.250000  0.650000    576.000000
  0.750000 -0.650000 -0.250000    576.000000
  0.650000 -0.550000 -0.150000    576.000000
  0.550000 -0.450000 -0.050000    576.000000
  0.450000 -0.350000  0.050000    576.000000
  0.350000 -0.250000  0.150000    576.000000
  0.050000  0.050000  0.650000    288.000000
 -0.050000  0.150000  0.750000    576.000000
  0.850000 -0.750000 -0.150000    576.000000
  0.750000 -0.650000 -0.050000    576.000000
  0.650000 -0.550000  0.050000    576.000000
  0.550000 -0.450000  0.150000    576.000000
  0.450000 -0.350000  0.250000    576.000000
  0.050000  0.050000  0.850000    288.000000
  0.950000 -0.850000 -0.050000    576.000000
  0.850000 -0.750000  0.050000    576.000000
  0.750000 -0.650000  0.150000    576.000000
  0.650000 -0.550000  0.250000    576.000000
  0.550000 -0.450000  0.350000    576.000000
  0.050000  0.050000 -0.950000    288.000000
 -0.050000  0.150000 -0.850000    576.000000
 -0.150000  0.250000 -0.750000    576.000000
 -0.250000  0.350000 -0.650000    576.000000
  0.050000  0.050000 -0.750000    288.000000
 -0.050000  0.150000 -0.650000    576.000000
 -0.150000  0.250000 -0.550000    576.000000
  0.050000  0.050000 -0.550000    288.000000
 -0.050000  0.150000 -0.450000    576.000000
  0.050000  0.050000 -0.350000    288.000000
  0.150000  0.150000  0.150000     96.000000
  0.050000  0.250000  0.250000    288.000000
 -0.050000  0.350000  0.350000    288.000000
 -0.150000  0.450000  0.450000    288.000000
  0.750000 -0.450000 -0.450000    288.000000
  0.650000 -0.350000 -0.350000    288.000000
  0.550000 -0.250000 -0.250000    288.000000
  0.450000 -0.150000 -0.150000    288.000000
  0.150000  0.150000  0.350000    288.000000
  0.050000  0.250000  0.450000    576.000000
 -0.050000  0.350000  0.550000    576.000000
  0.850000 -0.550000 -0.350000    576.000000
  0.750000 -0.450000 -0.250000    576.000000
  0.650000 -0.350000 -0.150000    576.000000
  0.550000 -0.250000 -0.050000    576.000000
  0.150000  0.150000  0.550000    288.000000
  0.050000  0.250000  0.650000    576.000000
  0.950000 -0.650000 -0.250000    576.000000
  0.850000 -0.550000 -0.150000    576.000000
  0.750000 -0.450000 -0.050000    576.000000
  0.650000 -0.350000  0.050000    576.000000
  0.150000  0.150000  0.750000    288.000000
  1.050000 -0.750000 -0.150000    576.000000
  0.950000 -0.650000 -0.050000    576.000000
  0.850000 -0.550000  0.050000    576.000000
  0.750000 -0.450000  0.150000    576.000000
  0.150000  0.150000 -1.050000    288.000000
  0.050000  0.250000 -0.950000    576.000000
 -0.050000  0.350000 -0.850000    576.000000
  0.150000  0.150000 -0.850000    288.000000
  0.050000  0.250000 -0.750000    576.000000
  0.150000  0.150000 -0.650000    288.000000
  0.250000  0.250000  0.250000     96.000000
  0.150000  0.350000  0.350000    288.000000
  0.050000  0.450000  0.450000    288.000000
  0.950000 -0.450000 -0.450000    288.000000
  0.850000 -0.350000 -0.350000    288.000000
  0.750000 -0.250000 -0.250000    288.000000
  0.250000  0.250000  0.450000    288.000000
  0.150000  0.350000  0.550000    576.000000
  1.050000 -0.550000 -0.350000    576.000000
  0.950000 -0.450000 -0.250000    576.000000
  0.850000 -0.350000 -0.150000    576.000000
  0.250000  0.250000  0.650000    288.000000
  1.150000 -0.650000 -0.250000    576.000000
  1.050000 -0.550000 -0.150000    576.000000
  0.950000 -0.450000 -0.050000    576.000000
  0.250000  0.250000 -1.150000    288.000000
  0.150000  0.350000 -1.050000    576.000000
  0.250000  0.250000 -0.950000    288.000000
  0.350000  0.350000  0.350000     96.000000
  0.250000  0.450000  0.450000    288.000000
  1.150000 -0.450000 -0.450000    288.000000
  1.050000 -0.350000 -0.350000    288.000000
  0.350000  0.350000  0.550000    288.000000
  1.250000 -0.550000 -0.350000    576.000000
  1.150000 -0.450000 -0.250000    576.000000
  0.350000  0.350000 -1.250000    288.000000
  0.450000  0.450000  0.450000     96.000000
  1.350000 -0.450000 -0.450000    288.000000
 


--------------------------------------------------------------------------------------------------------




 Dimension of arrays:
   k-points           NKPTS =    110   k-points in BZ     NKDIM =    110   number of bands    NBANDS=      6
   number of dos      NEDOS =    301   number of ions     NIONS =      1
   non local maximal  LDIM  =      4   non local SUM 2l+1 LMDIM =      8
   total plane-waves  NPLWV =   1728
   max r-space proj   IRMAX =      1   max aug-charges    IRDMAX=   4249
   dimension x,y,z NGX =    12 NGY =   12 NGZ =   12
   dimension x,y,z NGXF=    24 NGYF=   24 NGZF=   24
   support grid    NGXF=    24 NGYF=   24 NGZF=   24
   ions per type =               1
 NGX,Y,Z   is equivalent  to a cutoff of   6.97,  6.97,  6.97 a.u.
 NGXF,Y,Z  is equivalent  to a cutoff of  13.93, 13.93, 13.93 a.u.


 I would recommend the setting:
   dimension x,y,z NGX =    11 NGY =   11 NGZ =   11
 SYSTEM =  Al                                      
 POSCAR =  Al                                      

 Startparameter for this run:
   NWRITE =      2    write-flag & timer
   PREC   = normal    normal or accurate (medium, high low for compatibility)
   ISTART =      0    job   : 0-new  1-cont  2-samecut
   ICHARG =      2    charge: 1-file 2-atom 10-const
   ISPIN  =      1    spin polarized calculation?
   LNONCOLLINEAR =      F non collinear calculations
   LSORBIT =      F    spin-orbit coupling
   INIWAV =      1    electr: 0-lowe 1-rand  2-diag
   LASPH  =      F    aspherical Exc in radial PAW
   METAGGA=      F    non-selfconsistent MetaGGA calc.

 Electronic Relaxation 1
   ENCUT  =  240.4 eV  17.67 Ry    4.20 a.u.   3.62  3.62  3.62*2*pi/ulx,y,z
   ENINI  =  240.4     initial cutoff
   ENAUG  =  291.1 eV  augmentation charge cutoff
   NELM   =     60;   NELMIN=  2; NELMDL= -5     # of ELM steps 
   EDIFF  = 0.1E-05   stopping-criterion for ELM
   LREAL  =      F    real-space projection
   NLSPLINE    = F    spline interpolate recip. space projectors
   LCOMPAT=      F    compatible to vasp.4.4
   GGA_COMPAT  = T    GGA compatible to vasp.4.4-vasp.4.6
   LMAXPAW     = -100 max onsite density
   LMAXMIX     =    2 max onsite mixed and CHGCAR
   VOSKOWN=      0    Vosko Wilk Nusair interpolation
   ROPT   =    0.00000
 Ionic relaxation
   EDIFFG = 0.1E-04   stopping-criterion for IOM
   NSW    =      0    number of steps for IOM
   NBLOCK =      1;   KBLOCK =      1    inner block; outer block 
   IBRION =     -1    ionic relax: 0-MD 1-quasi-New 2-CG
   NFREE  =      0    steps in history (QN), initial steepest desc. (CG)
   ISIF   =      2    stress and relaxation
   IWAVPR =     10    prediction:  0-non 1-charg 2-wave 3-comb
   ISYM   =      2    0-nonsym 1-usesym 2-fastsym
   LCORR  =      T    Harris-Foulkes like correction to forces

   POTIM  = 0.5000    time-step for ionic-motion
   TEIN   =    0.0    initial temperature
   TEBEG  =    0.0;   TEEND  =   0.0 temperature during run
   SMASS  =  -3.00    Nose mass-parameter (am)
   estimated Nose-frequenzy (Omega)   =  0.10E-29 period in steps =****** mass=  -0.187E-27a.u.
   SCALEE = 1.0000    scale energy and forces
   NPACO  =    256;   APACO  = 16.0  distance and # of slots for P.C.
   PSTRESS=    0.0 pullay stress

  Mass of Ions in am
   POMASS =  26.98
  Ionic Valenz
   ZVAL   =   3.00
  Atomic Wigner-Seitz radii
   RWIGS  =   1.40
  virtual crystal weights 
   VCA    =   1.00
   NELECT =       3.0000    total number of electrons
   NUPDOWN=      -1.0000    fix difference up-down

 DOS related values:
   EMIN   =  10.00;   EMAX   =-10.00  energy-range for DOS
   EFERMI =   0.00
   ISMEAR =     1;   SIGMA  =   0.20  broadening in eV -4-tet -1-fermi 0-gaus

 Electronic relaxation 2 (details)
   IALGO  =     38    algorithm
   LDIAG  =      T    sub-space diagonalisation (order eigenvalues)
   LSUBROT=      T    optimize rotation matrix (better conditioning)
   TURBO    =      0    0=normal 1=particle mesh
   IRESTART =      0    0=no restart 2=restart with 2 vectors
   NREBOOT  =      0    no. of reboots
   NMIN     =      0    reboot dimension
   EREF     =   0.00    reference energy to select bands
   IMIX   =      4    mixing-type and parameters
     AMIX     =   0.40;   BMIX     =  1.00
     AMIX_MAG =   1.60;   BMIX_MAG =  1.00
     AMIN     =   0.10
     WC   =   100.;   INIMIX=   1;  MIXPRE=   1;  MAXMIX= -45

 Intra band minimization:
   WEIMIN = 0.0000     energy-eigenvalue tresh-hold
   EBREAK =  0.42E-07  absolut break condition
   DEPER  =   0.30     relativ break condition  

   TIME   =   0.40     timestep for ELM

  volume/ion in A,a.u.               =      16.61       112.07
  Fermi-wavevector in a.u.,A,eV,Ry     =   0.925437  1.748822 11.652489  0.856434
  Thomas-Fermi vector in A             =   2.051291
 
 Write flags
   LWAVE  =      F    write WAVECAR
   LCHARG =      T    write CHGCAR
   LVTOT  =      F    write LOCPOT, total local potential
   LVHAR  =      F    write LOCPOT, Hartree potential only
   LELF   =      F    write electronic localiz. function (ELF)
   LORBIT =      0    0 simple, 1 ext, 2 COOP (PROOUT)


 Dipole corrections
   LMONO  =      F    monopole corrections only (constant potential shift)
   LDIPOL =      F    correct potential (dipole corrections)
   IDIPOL =      0    1-x, 2-y, 3-z, 4-all directions 
   EPSILON=  1.0000000 bulk dielectric constant

 Exchange correlation treatment:
   GGA     =    --    GGA type
   LEXCH   =     7    internal setting for exchange type
   VOSKOWN=      0    Vosko Wilk Nusair interpolation
   LHFCALC =     F    Hartree Fock is set to
   LHFONE  =     F    Hartree Fock one center treatment
   AEXX    =    0.0000 exact exchange contribution

 Linear response parameters
   LEPSILON=     F    determine dielectric tensor
   LRPA    =     F    only Hartree local field effects (RPA)
   LNABLA  =     F    use nabla operator in PAW spheres
   LVEL    =     F    velocity operator in full k-point grid
   LINTERFAST=   F  fast interpolation
   KINTER  =     0    interpolate to denser k-point grid
   CSHIFT  =0.1000    complex shift for real part using Kramers Kronig
   OMEGAMAX=  -1.0    maximum frequency
   DEG_THRESHOLD= 0.2000000E-02 threshold for treating states as degnerate
   RTIME   =    0.100 relaxation time in fs

 Orbital magnetization related:
   ORBITALMAG=     F  switch on orbital magnetization
   LCHIMAG   =     F  perturbation theory with respect to B field
   DQ        =  0.001000  dq finite difference perturbation B field



--------------------------------------------------------------------------------------------------------


 Static calculation
 charge density and potential will be updated during run
 non-spin polarized calculation
 Variant of blocked Davidson
 Davidson routine will perform the subspace rotation
 perform sub-space diagonalisation
    after iterative eigenvector-optimisation
 modified Broyden-mixing scheme, WC =      100.0
 initial mixing is a Kerker type mixing with AMIX =  0.4000 and BMIX =      1.0000
 Hartree-type preconditioning will be used
 using additional bands            4
 reciprocal scheme for non local part
 use partial core corrections
 calculate Harris-corrections to forces 
   (improved forces if not selfconsistent)
 use gradient corrections 
 use of overlap-Matrix (Vanderbilt PP)
 Methfessel and Paxton  Order N= 1 SIGMA  =   0.20


--------------------------------------------------------------------------------------------------------


  energy-cutoff  :      240.44
  volume of cell :       16.61
      direct lattice vectors                 reciprocal lattice vectors
     0.000000000  2.025000000  2.025000000    -0.246913580  0.246913580  0.246913580
     2.025000000  0.000000000  2.025000000     0.246913580 -0.246913580  0.246913580
     2.025000000  2.025000000  0.000000000     0.246913580  0.246913580 -0.246913580

  length of vectors
     2.863782464  2.863782464  2.863782464     0.427666866  0.427666866  0.427666866


 
 k-points in units of 2pi/SCALE and weight: 10x10x10                                
   0.05000000  0.05000000  0.05000000       0.002
  -0.05000000  0.15000000  0.15000000       0.006
  -0.15000000  0.25000000  0.25000000       0.006
  -0.25000000  0.35000000  0.35000000       0.006
  -0.35000000  0.45000000  0.45000000       0.006
   0.55000000 -0.45000000 -0.45000000       0.006
   0.45000000 -0.35000000 -0.35000000       0.006
   0.35000000 -0.25000000 -0.25000000       0.006
   0.25000000 -0.15000000 -0.15000000       0.006
   0.15000000 -0.05000000 -0.05000000       0.006
   0.05000000  0.05000000  0.25000000       0.006
  -0.05000000  0.15000000  0.35000000       0.012
  -0.15000000  0.25000000  0.45000000       0.012
  -0.25000000  0.35000000  0.55000000       0.012
   0.65000000 -0.55000000 -0.35000000       0.012
   0.55000000 -0.45000000 -0.25000000       0.012
   0.45000000 -0.35000000 -0.15000000       0.012
   0.35000000 -0.25000000 -0.05000000       0.012
   0.25000000 -0.15000000  0.05000000       0.012
   0.05000000  0.05000000  0.45000000       0.006
  -0.05000000  0.15000000  0.55000000       0.012
  -0.15000000  0.25000000  0.65000000       0.012
   0.75000000 -0.65000000 -0.25000000       0.012
   0.65000000 -0.55000000 -0.15000000       0.012
   0.55000000 -0.45000000 -0.05000000       0.012
   0.45000000 -0.35000000  0.05000000       0.012
   0.35000000 -0.25000000  0.15000000       0.012
   0.05000000  0.05000000  0.65000000       0.006
  -0.05000000  0.15000000  0.75000000       0.012
   0.85000000 -0.75000000 -0.15000000       0.012
   0.75000000 -0.65000000 -0.05000000       0.012
   0.65000000 -0.55000000  0.05000000       0.012
   0.55000000 -0.45000000  0.15000000       0.012
   0.45000000 -0.35000000  0.25000000       0.012
   0.05000000  0.05000000  0.85000000       0.006
   0.95000000 -0.85000000 -0.05000000       0.012
   0.85000000 -0.75000000  0.05000000       0.012
   0.75000000 -0.65000000  0.15000000       0.012
   0.65000000 -0.55000000  0.25000000       0.012
   0.55000000 -0.45000000  0.35000000       0.012
   0.05000000  0.05000000 -0.95000000       0.006
  -0.05000000  0.15000000 -0.85000000       0.012
  -0.15000000  0.25000000 -0.75000000       0.012
  -0.25000000  0.35000000 -0.65000000       0.012
   0.05000000  0.05000000 -0.75000000       0.006
  -0.05000000  0.15000000 -0.65000000       0.012
  -0.15000000  0.25000000 -0.55000000       0.012
   0.05000000  0.05000000 -0.55000000       0.006
  -0.05000000  0.15000000 -0.45000000       0.012
   0.05000000  0.05000000 -0.35000000       0.006
   0.15000000  0.15000000  0.15000000       0.002
   0.05000000  0.25000000  0.25000000       0.006
  -0.05000000  0.35000000  0.35000000       0.006
  -0.15000000  0.45000000  0.45000000       0.006
   0.75000000 -0.45000000 -0.45000000       0.006
   0.65000000 -0.35000000 -0.35000000       0.006
   0.55000000 -0.25000000 -0.25000000       0.006
   0.45000000 -0.15000000 -0.15000000       0.006
   0.15000000  0.15000000  0.35000000       0.006
   0.05000000  0.25000000  0.45000000       0.012
  -0.05000000  0.35000000  0.55000000       0.012
   0.85000000 -0.55000000 -0.35000000       0.012
   0.75000000 -0.45000000 -0.25000000       0.012
   0.65000000 -0.35000000 -0.15000000       0.012
   0.55000000 -0.25000000 -0.05000000       0.012
   0.15000000  0.15000000  0.55000000       0.006
   0.05000000  0.25000000  0.65000000       0.012
   0.95000000 -0.65000000 -0.25000000       0.012
   0.85000000 -0.55000000 -0.15000000       0.012
   0.75000000 -0.45000000 -0.05000000       0.012
   0.65000000 -0.35000000  0.05000000       0.012
   0.15000000  0.15000000  0.75000000       0.006
   1.05000000 -0.75000000 -0.15000000       0.012
   0.95000000 -0.65000000 -0.05000000       0.012
   0.85000000 -0.55000000  0.05000000       0.012
   0.75000000 -0.45000000  0.15000000       0.012
   0.15000000  0.15000000 -1.05000000       0.006
   0.05000000  0.25000000 -0.95000000       0.012
  -0.05000000  0.35000000 -0.85000000       0.012
   0.15000000  0.15000000 -0.85000000       0.006
   0.05000000  0.25000000 -0.75000000       0.012
   0.15000000  0.15000000 -0.65000000       0.006
   0.25000000  0.25000000  0.25000000       0.002
   0.15000000  0.35000000  0.35000000       0.006
   0.05000000  0.45000000  0.45000000       0.006
   0.95000000 -0.45000000 -0.45000000       0.006
   0.85000000 -0.35000000 -0.35000000       0.006
   0.75000000 -0.25000000 -0.25000000       0.006
   0.25000000  0.25000000  0.45000000       0.006
   0.15000000  0.35000000  0.55000000       0.012
   1.05000000 -0.55000000 -0.35000000       0.012
   0.95000000 -0.45000000 -0.25000000       0.012
   0.85000000 -0.35000000 -0.15000000       0.012
   0.25000000  0.25000000  0.65000000       0.006
   1.15000000 -0.65000000 -0.25000000       0.012
   1.05000000 -0.55000000 -0.15000000       0.012
   0.95000000 -0.45000000 -0.05000000       0.012
   0.25000000  0.25000000 -1.15000000       0.006
   0.15000000  0.35000000 -1.05000000       0.012
   0.25000000  0.25000000 -0.95000000       0.006
   0.35000000  0.35000000  0.35000000       0.002
   0.25000000  0.45000000  0.45000000       0.006
   1.15000000 -0.45000000 -0.45000000       0.006
   1.05000000 -0.35000000 -0.35000000       0.006
   0.35000000  0.35000000  0.55000000       0.006
   1.25000000 -0.55000000 -0.35000000       0.012
   1.15000000 -0.45000000 -0.25000000       0.012
   0.35000000  0.35000000 -1.25000000       0.006
   0.45000000  0.45000000  0.45000000       0.002
   1.35000000 -0.45000000 -0.45000000       0.006
 
 k-points in reciprocal lattice and weights: 10x10x10                                
   0.05000000  0.05000000  0.05000000       0.002
   0.15000000  0.05000000  0.05000000       0.006
   0.25000000  0.05000000  0.05000000       0.006
   0.35000000  0.05000000  0.05000000       0.006
   0.45000000  0.05000000  0.05000000       0.006
  -0.45000000  0.05000000  0.05000000       0.006
  -0.35000000  0.05000000  0.05000000       0.006
  -0.25000000  0.05000000  0.05000000       0.006
  -0.15000000  0.05000000  0.05000000       0.006
  -0.05000000  0.05000000  0.05000000       0.006
   0.15000000  0.15000000  0.05000000       0.006
   0.25000000  0.15000000  0.05000000       0.012
   0.35000000  0.15000000  0.05000000       0.012
   0.45000000  0.15000000  0.05000000       0.012
  -0.45000000  0.15000000  0.05000000       0.012
  -0.35000000  0.15000000  0.05000000       0.012
  -0.25000000  0.15000000  0.05000000       0.012
  -0.15000000  0.15000000  0.05000000       0.012
  -0.05000000  0.15000000  0.05000000       0.012
   0.25000000  0.25000000  0.05000000       0.006
   0.35000000  0.25000000  0.05000000       0.012
   0.45000000  0.25000000  0.05000000       0.012
  -0.45000000  0.25000000  0.05000000       0.012
  -0.35000000  0.25000000  0.05000000       0.012
  -0.25000000  0.25000000  0.05000000       0.012
  -0.15000000  0.25000000  0.05000000       0.012
  -0.05000000  0.25000000  0.05000000       0.012
   0.35000000  0.35000000  0.05000000       0.006
   0.45000000  0.35000000  0.05000000       0.012
  -0.45000000  0.35000000  0.05000000       0.012
  -0.35000000  0.35000000  0.05000000       0.012
  -0.25000000  0.35000000  0.05000000       0.012
  -0.15000000  0.35000000  0.05000000       0.012
  -0.05000000  0.35000000  0.05000000       0.012
   0.45000000  0.45000000  0.05000000       0.006
  -0.45000000  0.45000000  0.05000000       0.012
  -0.35000000  0.45000000  0.05000000       0.012
  -0.25000000  0.45000000  0.05000000       0.012
  -0.15000000  0.45000000  0.05000000       0.012
  -0.05000000  0.45000000  0.05000000       0.012
  -0.45000000 -0.45000000  0.05000000       0.006
  -0.35000000 -0.45000000  0.05000000       0.012
  -0.25000000 -0.45000000  0.05000000       0.012
  -0.15000000 -0.45000000  0.05000000       0.012
  -0.35000000 -0.35000000  0.05000000       0.006
  -0.25000000 -0.35000000  0.05000000       0.012
  -0.15000000 -0.35000000  0.05000000       0.012
  -0.25000000 -0.25000000  0.05000000       0.006
  -0.15000000 -0.25000000  0.05000000       0.012
  -0.15000000 -0.15000000  0.05000000       0.006
   0.15000000  0.15000000  0.15000000       0.002
   0.25000000  0.15000000  0.15000000       0.006
   0.35000000  0.15000000  0.15000000       0.006
   0.45000000  0.15000000  0.15000000       0.006
  -0.45000000  0.15000000  0.15000000       0.006
  -0.35000000  0.15000000  0.15000000       0.006
  -0.25000000  0.15000000  0.15000000       0.006
  -0.15000000  0.15000000  0.15000000       0.006
   0.25000000  0.25000000  0.15000000       0.006
   0.35000000  0.25000000  0.15000000       0.012
   0.45000000  0.25000000  0.15000000       0.012
  -0.45000000  0.25000000  0.15000000       0.012
  -0.35000000  0.25000000  0.15000000       0.012
  -0.25000000  0.25000000  0.15000000       0.012
  -0.15000000  0.25000000  0.15000000       0.012
   0.35000000  0.35000000  0.15000000       0.006
   0.45000000  0.35000000  0.15000000       0.012
  -0.45000000  0.35000000  0.15000000       0.012
  -0.35000000  0.35000000  0.15000000       0.012
  -0.25000000  0.35000000  0.15000000       0.012
  -0.15000000  0.35000000  0.15000000       0.012
   0.45000000  0.45000000  0.15000000       0.006
  -0.45000000  0.45000000  0.15000000       0.012
  -0.35000000  0.45000000  0.15000000       0.012
  -0.25000000  0.45000000  0.15000000       0.012
  -0.15000000  0.45000000  0.15000000       0.012
  -0.45000000 -0.45000000  0.15000000       0.006
  -0.35000000 -0.45000000  0.15000000       0.012
  -0.25000000 -0.45000000  0.15000000       0.012
  -0.35000000 -0.35000000  0.15000000       0.006
  -0.25000000 -0.35000000  0.15000000       0.012
  -0.25000000 -0.25000000  0.15000000       0.006
   0.25000000  0.25000000  0.25000000       0.002
   0.35000000  0.25000000  0.25000000       0.006
   0.45000000  0.25000000  0.25000000       0.006
  -0.45000000  0.25000000  0.25000000       0.006
  -0.35000000  0.25000000  0.25000000       0.006
  -0.25000000  0.25000000  0.25000000       0.006
   0.35000000  0.35000000  0.25000000       0.006
   0.45000000  0.35000000  0.25000000       0.012
  -0.45000000  0.35000000  0.25000000       0.012
  -0.35000000  0.35000000  0.25000000       0.012
  -0.25000000  0.35000000  0.25000000       0.012
   0.45000000  0.45000000  0.25000000       0.006
  -0.45000000  0.45000000  0.25000000       0.012
  -0.35000000  0.45000000  0.25000000       0.012
  -0.25000000  0.45000000  0.25000000       0.012
  -0.45000000 -0.45000000  0.25000000       0.006
  -0.35000000 -0.45000000  0.25000000       0.012
  -0.35000000 -0.35000000  0.25000000       0.006
   0.35000000  0.35000000  0.35000000       0.002
   0.45000000  0.35000000  0.35000000       0.006
  -0.45000000  0.35000000  0.35000000       0.006
  -0.35000000  0.35000000  0.35000000       0.006
   0.45000000  0.45000000  0.35000000       0.006
  -0.45000000  0.45000000  0.35000000       0.012
  -0.35000000  0.45000000  0.35000000       0.012
  -0.45000000 -0.45000000  0.35000000       0.006
   0.45000000  0.45000000  0.45000000       0.002
  -0.45000000  0.45000000  0.45000000       0.006
 
 position of ions in fractional coordinates (direct lattice) 
   0.00000000  0.00000000  0.00000000
 
 position of ions in cartesian coordinates  (Angst):
   0.00000000  0.00000000  0.00000000
 


--------------------------------------------------------------------------------------------------------


 k-point  1 :   0.0500 0.0500 0.0500  plane waves:     138
 k-point  2 :   0.1500 0.0500 0.0500  plane waves:     148
 k-point  3 :   0.2500 0.0500 0.0500  plane waves:     145
 k-point  4 :   0.3500 0.0500 0.0500  plane waves:     144
 k-point  5 :   0.4500 0.0500 0.0500  plane waves:     147
 k-point  6 :  -0.4500 0.0500 0.0500  plane waves:     141
 k-point  7 :  -0.3500 0.0500 0.0500  plane waves:     146
 k-point  8 :  -0.2500 0.0500 0.0500  plane waves:     145
 k-point  9 :  -0.1500 0.0500 0.0500  plane waves:     147
 k-point 10 :  -0.0500 0.0500 0.0500  plane waves:     146
 k-point 11 :   0.1500 0.1500 0.0500  plane waves:     148
 k-point 12 :   0.2500 0.1500 0.0500  plane waves:     141
 k-point 13 :   0.3500 0.1500 0.0500  plane waves:     143
 k-point 14 :   0.4500 0.1500 0.0500  plane waves:     144
 k-point 15 :  -0.4500 0.1500 0.0500  plane waves:     138
 k-point 16 :  -0.3500 0.1500 0.0500  plane waves:     142
 k-point 17 :  -0.2500 0.1500 0.0500  plane waves:     145
 k-point 18 :  -0.1500 0.1500 0.0500  plane waves:     143
 k-point 19 :  -0.0500 0.1500 0.0500  plane waves:     146
 k-point 20 :   0.2500 0.2500 0.0500  plane waves:     143
 k-point 21 :   0.3500 0.2500 0.0500  plane waves:     140
 k-point 22 :   0.4500 0.2500 0.0500  plane waves:     141
 k-point 23 :  -0.4500 0.2500 0.0500  plane waves:     140
 k-point 24 :  -0.3500 0.2500 0.0500  plane waves:     137
 k-point 25 :  -0.2500 0.2500 0.0500  plane waves:     140
 k-point 26 :  -0.1500 0.2500 0.0500  plane waves:     141
 k-point 27 :  -0.0500 0.2500 0.0500  plane waves:     145
 k-point 28 :   0.3500 0.3500 0.0500  plane waves:     137
 k-point 29 :   0.4500 0.3500 0.0500  plane waves:     137
 k-point 30 :  -0.4500 0.3500 0.0500  plane waves:     138
 k-point 31 :  -0.3500 0.3500 0.0500  plane waves:     139
 k-point 32 :  -0.2500 0.3500 0.0500  plane waves:     138
 k-point 33 :  -0.1500 0.3500 0.0500  plane waves:     140
 k-point 34 :  -0.0500 0.3500 0.0500  plane waves:     144
 k-point 35 :   0.4500 0.4500 0.0500  plane waves:     135
 k-point 36 :  -0.4500 0.4500 0.0500  plane waves:     137
 k-point 37 :  -0.3500 0.4500 0.0500  plane waves:     137
 k-point 38 :  -0.2500 0.4500 0.0500  plane waves:     135
 k-point 39 :  -0.1500 0.4500 0.0500  plane waves:     139
 k-point 40 :  -0.0500 0.4500 0.0500  plane waves:     142
 k-point 41 :  -0.4500-0.4500 0.0500  plane waves:     142
 k-point 42 :  -0.3500-0.4500 0.0500  plane waves:     135
 k-point 43 :  -0.2500-0.4500 0.0500  plane waves:     139
 k-point 44 :  -0.1500-0.4500 0.0500  plane waves:     142
 k-point 45 :  -0.3500-0.3500 0.0500  plane waves:     135
 k-point 46 :  -0.2500-0.3500 0.0500  plane waves:     140
 k-point 47 :  -0.1500-0.3500 0.0500  plane waves:     141
 k-point 48 :  -0.2500-0.2500 0.0500  plane waves:     139
 k-point 49 :  -0.1500-0.2500 0.0500  plane waves:     141
 k-point 50 :  -0.1500-0.1500 0.0500  plane waves:     145
 k-point 51 :   0.1500 0.1500 0.1500  plane waves:     150
 k-point 52 :   0.2500 0.1500 0.1500  plane waves:     143
 k-point 53 :   0.3500 0.1500 0.1500  plane waves:     142
 k-point 54 :   0.4500 0.1500 0.1500  plane waves:     143
 k-point 55 :  -0.4500 0.1500 0.1500  plane waves:     140
 k-point 56 :  -0.3500 0.1500 0.1500  plane waves:     140
 k-point 57 :  -0.2500 0.1500 0.1500  plane waves:     144
 k-point 58 :  -0.1500 0.1500 0.1500  plane waves:     140
 k-point 59 :   0.2500 0.2500 0.1500  plane waves:     145
 k-point 60 :   0.3500 0.2500 0.1500  plane waves:     141
 k-point 61 :   0.4500 0.2500 0.1500  plane waves:     142
 k-point 62 :  -0.4500 0.2500 0.1500  plane waves:     138
 k-point 63 :  -0.3500 0.2500 0.1500  plane waves:     140
 k-point 64 :  -0.2500 0.2500 0.1500  plane waves:     141
 k-point 65 :  -0.1500 0.2500 0.1500  plane waves:     143
 k-point 66 :   0.3500 0.3500 0.1500  plane waves:     141
 k-point 67 :   0.4500 0.3500 0.1500  plane waves:     142
 k-point 68 :  -0.4500 0.3500 0.1500  plane waves:     140
 k-point 69 :  -0.3500 0.3500 0.1500  plane waves:     141
 k-point 70 :  -0.2500 0.3500 0.1500  plane waves:     138
 k-point 71 :  -0.1500 0.3500 0.1500  plane waves:     143
 k-point 72 :   0.4500 0.4500 0.1500  plane waves:     139
 k-point 73 :  -0.4500 0.4500 0.1500  plane waves:     137
 k-point 74 :  -0.3500 0.4500 0.1500  plane waves:     138
 k-point 75 :  -0.2500 0.4500 0.1500  plane waves:     142
 k-point 76 :  -0.1500 0.4500 0.1500  plane waves:     140
 k-point 77 :  -0.4500-0.4500 0.1500  plane waves:     136
 k-point 78 :  -0.3500-0.4500 0.1500  plane waves:     137
 k-point 79 :  -0.2500-0.4500 0.1500  plane waves:     138
 k-point 80 :  -0.3500-0.3500 0.1500  plane waves:     137
 k-point 81 :  -0.2500-0.3500 0.1500  plane waves:     138
 k-point 82 :  -0.2500-0.2500 0.1500  plane waves:     139
 k-point 83 :   0.2500 0.2500 0.2500  plane waves:     150
 k-point 84 :   0.3500 0.2500 0.2500  plane waves:     143
 k-point 85 :   0.4500 0.2500 0.2500  plane waves:     142
 k-point 86 :  -0.4500 0.2500 0.2500  plane waves:     137
 k-point 87 :  -0.3500 0.2500 0.2500  plane waves:     138
 k-point 88 :  -0.2500 0.2500 0.2500  plane waves:     143
 k-point 89 :   0.3500 0.3500 0.2500  plane waves:     143
 k-point 90 :   0.4500 0.3500 0.2500  plane waves:     141
 k-point 91 :  -0.4500 0.3500 0.2500  plane waves:     140
 k-point 92 :  -0.3500 0.3500 0.2500  plane waves:     139
 k-point 93 :  -0.2500 0.3500 0.2500  plane waves:     138
 k-point 94 :   0.4500 0.4500 0.2500  plane waves:     142
 k-point 95 :  -0.4500 0.4500 0.2500  plane waves:     141
 k-point 96 :  -0.3500 0.4500 0.2500  plane waves:     139
 k-point 97 :  -0.2500 0.4500 0.2500  plane waves:     144
 k-point 98 :  -0.4500-0.4500 0.2500  plane waves:     135
 k-point 99 :  -0.3500-0.4500 0.2500  plane waves:     138
 k-point ** :  -0.3500-0.3500 0.2500  plane waves:     136
 k-point ** :   0.3500 0.3500 0.3500  plane waves:     144
 k-point ** :   0.4500 0.3500 0.3500  plane waves:     144
 k-point ** :  -0.4500 0.3500 0.3500  plane waves:     138
 k-point ** :  -0.3500 0.3500 0.3500  plane waves:     138
 k-point ** :   0.4500 0.4500 0.3500  plane waves:     143
 k-point ** :  -0.4500 0.4500 0.3500  plane waves:     140
 k-point ** :  -0.3500 0.4500 0.3500  plane waves:     140
 k-point ** :  -0.4500-0.4500 0.3500  plane waves:     138
 k-point ** :   0.4500 0.4500 0.4500  plane waves:     147
 k-point ** :  -0.4500 0.4500 0.4500  plane waves:     138

 maximum and minimum number of plane-waves per node :       150      135

 maximum number of plane-waves:       150
 maximum index in each direction: 
   IXMAX=    4   IYMAX=    4   IZMAX=    3
   IXMIN=   -4   IYMIN=   -4   IZMIN=   -4

 WARNING: aliasing errors must be expected set NGX to  18 to avoid them
 WARNING: aliasing errors must be expected set NGY to  18 to avoid them
 WARNING: aliasing errors must be expected set NGZ to  16 to avoid them
 aliasing errors are usually negligible using standard VASP settings
 and one can safely disregard these warnings

 serial   3D FFT for wavefunctions
 parallel 3D FFT for charge:
    minimum data exchange during FFTs selected (reduces bandwidth)


 total amount of memory used by VASP on root node    32974. kBytes
========================================================================

   base      :      30000. kBytes
   nonl-proj :       1058. kBytes
   fftplans  :        471. kBytes
   grid      :        608. kBytes
   one-center:          3. kBytes
   wavefun   :        834. kBytes
 
 Broyden mixing: mesh for mixing (old mesh)
   NGX =  7   NGY =  7   NGZ =  7
  (NGX  = 24   NGY  = 24   NGZ  = 24)
  gives a total of    343 points

 initial charge density was supplied:
 charge density of overlapping atoms calculated
 number of electron       3.0000000 magnetization 
 keeping initial charge density in first step


--------------------------------------------------------------------------------------------------------


 Maximum index for augmentation-charges         2019 (set IRDMAX)


--------------------------------------------------------------------------------------------------------


 First call to EWALD:  gamma=   0.695
 Maximum number of real-space cells 3x 3x 3
 Maximum number of reciprocal cells 3x 3x 3

 FEWALD executed in parallel
    FEWALD:  cpu time    0.00: real time    0.00


----------------------------------------- Iteration    1(   1)  ---------------------------------------


    POTLOK:  cpu time    0.01: real time    0.01
    SETDIJ:  cpu time    0.00: real time    0.00
     EDDAV:  cpu time    0.30: real time    0.30
       DOS:  cpu time    0.00: real time    0.00
    --------------------------------------------
      LOOP:  cpu time    0.32: real time    0.32

 eigenvalue-minimisations  :  1770
 total energy-change (2. order) :-0.3210996E+01  (-0.5676188E+02)
 number of electron       3.0000000 magnetization 
 augmentation part        3.0000000 magnetization 

 Free energy of the ion-electron system (eV)
  ---------------------------------------------------
  alpha Z        PSCENC =        -0.15332662
  Ewald energy   TEWEN  =       -73.35670894
  -1/2 Hartree   DENC   =        -0.10550201
  -exchange  EXHF       =         0.00000000
  -V(xc)+E(xc)   XCENC  =       -26.40556105
  PAW double counting   =        35.65910006       -3.60582523
  entropy T*S    EENTRO =        -0.00043136
  eigenvalues    EBANDS =        11.06925260
  atomic energy  EATOM  =        53.68800704
  ---------------------------------------------------
  free energy    TOTEN  =        -3.21099550 eV

  energy without entropy =       -3.21056414  energy(sigma->0) =       -3.21085171


--------------------------------------------------------------------------------------------------------




----------------------------------------- Iteration    1(   2)  ---------------------------------------


     EDDAV:  cpu time    0.31: real time    0.31
       DOS:  cpu time    0.00: real time    0.00
    --------------------------------------------
      LOOP:  cpu time    0.31: real time    0.31

 eigenvalue-minimisations  :  1800
 total energy-change (2. order) :-0.4962763E+00  (-0.4547496E+00)
 number of electron       3.0000000 magnetization 
 augmentation part        3.0000000 magnetization 

 Free energy of the ion-electron system (eV)
  ---------------------------------------------------
  alpha Z        PSCENC =        -0.15332662
  Ewald energy   TEWEN  =       -73.35670894
  -1/2 Hartree   DENC   =        -0.10550201
  -exchange  EXHF       =         0.00000000
  -V(xc)+E(xc)   XCENC  =       -26.40556105
  PAW double counting   =        35.65910006       -3.60582523
  entropy T*S    EENTRO =        -0.00015670
  eigenvalues    EBANDS =        10.57270165
  atomic energy  EATOM  =        53.68800704
  ---------------------------------------------------
  free energy    TOTEN  =        -3.70727179 eV

  energy without entropy =       -3.70711509  energy(sigma->0) =       -3.70721956


--------------------------------------------------------------------------------------------------------




----------------------------------------- Iteration    1(   3)  ---------------------------------------


     EDDAV:  cpu time    0.28: real time    0.29
       DOS:  cpu time    0.00: real time    0.00
    --------------------------------------------
      LOOP:  cpu time    0.29: real time    0.29

 eigenvalue-minimisations  :  1662
 total energy-change (2. order) :-0.1755021E-02  (-0.1754948E-02)
 number of electron       3.0000000 magnetization 
 augmentation part        3.0000000 magnetization 

 Free energy of the ion-electron system (eV)
  ---------------------------------------------------
  alpha Z        PSCENC =        -0.15332662
  Ewald energy   TEWEN  =       -73.35670894
  -1/2 Hartree   DENC   =        -0.10550201
  -exchange  EXHF       =         0.00000000
  -V(xc)+E(xc)   XCENC  =       -26.40556105
  PAW double counting   =        35.65910006       -3.60582523
  entropy T*S    EENTRO =        -0.00015524
  eigenvalues    EBANDS =        10.57094517
  atomic energy  EATOM  =        53.68800704
  ---------------------------------------------------
  free energy    TOTEN  =        -3.70902681 eV

  energy without entropy =       -3.70887157  energy(sigma->0) =       -3.70897507


--------------------------------------------------------------------------------------------------------




----------------------------------------- Iteration    1(   4)  ---------------------------------------


     EDDAV:  cpu time    0.31: real time    0.31
       DOS:  cpu time    0.00: real time    0.00
    --------------------------------------------
      LOOP:  cpu time    0.32: real time    0.32

 eigenvalue-minimisations  :  1818
 total energy-change (2. order) :-0.1228462E-05  (-0.1228766E-05)
 number of electron       3.0000000 magnetization 
 augmentation part        3.0000000 magnetization 

 Free energy of the ion-electron system (eV)
  ---------------------------------------------------
  alpha Z        PSCENC =        -0.15332662
  Ewald energy   TEWEN  =       -73.35670894
  -1/2 Hartree   DENC   =        -0.10550201
  -exchange  EXHF       =         0.00000000
  -V(xc)+E(xc)   XCENC  =       -26.40556105
  PAW double counting   =        35.65910006       -3.60582523
  entropy T*S    EENTRO =        -0.00015525
  eigenvalues    EBANDS =        10.57094395
  atomic energy  EATOM  =        53.68800704
  ---------------------------------------------------
  free energy    TOTEN  =        -3.70902804 eV

  energy without entropy =       -3.70887279  energy(sigma->0) =       -3.70897629


--------------------------------------------------------------------------------------------------------




----------------------------------------- Iteration    1(   5)  ---------------------------------------


     EDDAV:  cpu time    0.30: real time    0.30
       DOS:  cpu time    0.00: real time    0.00
    CHARGE:  cpu time    0.01: real time    0.01
    MIXING:  cpu time    0.00: real time    0.00
    --------------------------------------------
      LOOP:  cpu time    0.32: real time    0.32

 eigenvalue-minimisations  :  1668
 total energy-change (2. order) :-0.2438355E-08  (-0.2196478E-08)
 number of electron       3.0000000 magnetization 
 augmentation part       -0.0375772 magnetization 

 Broyden mixing:
  rms(total) = 0.90496E-01    rms(broyden)= 0.90490E-01
  rms(prec ) = 0.33941E+00
  weight for this iteration     100.00

 Free energy of the ion-electron system (eV)
  ---------------------------------------------------
  alpha Z        PSCENC =        -0.15332662
  Ewald energy   TEWEN  =       -73.35670894
  -1/2 Hartree   DENC   =        -0.10550201
  -exchange  EXHF       =         0.00000000
  -V(xc)+E(xc)   XCENC  =       -26.40556105
  PAW double counting   =        35.65910006       -3.60582523
  entropy T*S    EENTRO =        -0.00015525
  eigenvalues    EBANDS =        10.57094395
  atomic energy  EATOM  =        53.68800704
  ---------------------------------------------------
  free energy    TOTEN  =        -3.70902804 eV

  energy without entropy =       -3.70887280  energy(sigma->0) =       -3.70897629


--------------------------------------------------------------------------------------------------------




----------------------------------------- Iteration    1(   6)  ---------------------------------------


    POTLOK:  cpu time    0.01: real time    0.01
    SETDIJ:  cpu time    0.00: real time    0.00
     EDDAV:  cpu time    0.24: real time    0.24
       DOS:  cpu time    0.00: real time    0.00
    CHARGE:  cpu time    0.01: real time    0.01
    MIXING:  cpu time    0.00: real time    0.00
    --------------------------------------------
      LOOP:  cpu time    0.28: real time    0.28

 eigenvalue-minimisations  :  1434
 total energy-change (2. order) : 0.1167024E-01  (-0.1601184E-03)
 number of electron       3.0000000 magnetization 
 augmentation part       -0.0381244 magnetization 

 Broyden mixing:
  rms(total) = 0.56382E-01    rms(broyden)= 0.56381E-01
  rms(prec ) = 0.21289E+00
  weight for this iteration     100.00

 eigenvalues of (default mixing * dielectric matrix)
  average eigenvalue GAMMA=   2.6420
  2.6420

 Free energy of the ion-electron system (eV)
  ---------------------------------------------------
  alpha Z        PSCENC =        -0.15332662
  Ewald energy   TEWEN  =       -73.35670894
  -1/2 Hartree   DENC   =        -0.08818849
  -exchange  EXHF       =         0.00000000
  -V(xc)+E(xc)   XCENC  =       -26.37079964
  PAW double counting   =        35.74934916       -3.70280794
  entropy T*S    EENTRO =        -0.00018948
  eigenvalues    EBANDS =        10.53730711
  atomic energy  EATOM  =        53.68800704
  ---------------------------------------------------
  free energy    TOTEN  =        -3.69735780 eV

  energy without entropy =       -3.69716832  energy(sigma->0) =       -3.69729464


--------------------------------------------------------------------------------------------------------




----------------------------------------- Iteration    1(   7)  ---------------------------------------


    POTLOK:  cpu time    0.01: real time    0.01
    SETDIJ:  cpu time    0.00: real time    0.00
     EDDAV:  cpu time    0.24: real time    0.24
       DOS:  cpu time    0.00: real time    0.00
    CHARGE:  cpu time    0.01: real time    0.01
    MIXING:  cpu time    0.00: real time    0.00
    --------------------------------------------
      LOOP:  cpu time    0.27: real time    0.28

 eigenvalue-minimisations  :  1428
 total energy-change (2. order) : 0.7710362E-02  (-0.4454781E-03)
 number of electron       3.0000000 magnetization 
 augmentation part       -0.0391384 magnetization 

 Broyden mixing:
  rms(total) = 0.26670E-02    rms(broyden)= 0.26666E-02
  rms(prec ) = 0.73191E-02
  weight for this iteration     100.00

 eigenvalues of (default mixing * dielectric matrix)
  average eigenvalue GAMMA=   2.6015
  2.3718  2.8312

 Free energy of the ion-electron system (eV)
  ---------------------------------------------------
  alpha Z        PSCENC =        -0.15332662
  Ewald energy   TEWEN  =       -73.35670894
  -1/2 Hartree   DENC   =        -0.10156782
  -exchange  EXHF       =         0.00000000
  -V(xc)+E(xc)   XCENC  =       -26.29817687
  PAW double counting   =        35.87913749       -3.84497908
  entropy T*S    EENTRO =        -0.00025423
  eigenvalues    EBANDS =        10.49822159
  atomic energy  EATOM  =        53.68800704
  ---------------------------------------------------
  free energy    TOTEN  =        -3.68964744 eV

  energy without entropy =       -3.68939321  energy(sigma->0) =       -3.68956270


--------------------------------------------------------------------------------------------------------




----------------------------------------- Iteration    1(   8)  ---------------------------------------


    POTLOK:  cpu time    0.01: real time    0.01
    SETDIJ:  cpu time    0.00: real time    0.00
     EDDAV:  cpu time    0.32: real time    0.32
       DOS:  cpu time    0.00: real time    0.00
    CHARGE:  cpu time    0.01: real time    0.01
    MIXING:  cpu time    0.00: real time    0.00
    --------------------------------------------
      LOOP:  cpu time    0.36: real time    0.36

 eigenvalue-minimisations  :  1890
 total energy-change (2. order) :-0.8054318E-05  (-0.2185902E-05)
 number of electron       3.0000000 magnetization 
 augmentation part       -0.0391925 magnetization 

 Broyden mixing:
  rms(total) = 0.68890E-03    rms(broyden)= 0.68881E-03
  rms(prec ) = 0.20355E-02
  weight for this iteration     100.00

 eigenvalues of (default mixing * dielectric matrix)
  average eigenvalue GAMMA=   2.0925
  0.9642  2.7646  2.5486

 Free energy of the ion-electron system (eV)
  ---------------------------------------------------
  alpha Z        PSCENC =        -0.15332662
  Ewald energy   TEWEN  =       -73.35670894
  -1/2 Hartree   DENC   =        -0.10408716
  -exchange  EXHF       =         0.00000000
  -V(xc)+E(xc)   XCENC  =       -26.29587757
  PAW double counting   =        35.89579566       -3.86258330
  entropy T*S    EENTRO =        -0.00025386
  eigenvalues    EBANDS =        10.49937926
  atomic energy  EATOM  =        53.68800704
  ---------------------------------------------------
  free energy    TOTEN  =        -3.68965549 eV

  energy without entropy =       -3.68940163  energy(sigma->0) =       -3.68957087


--------------------------------------------------------------------------------------------------------




----------------------------------------- Iteration    1(   9)  ---------------------------------------


    POTLOK:  cpu time    0.01: real time    0.01
    SETDIJ:  cpu time    0.00: real time    0.00
     EDDAV:  cpu time    0.22: real time    0.22
       DOS:  cpu time    0.00: real time    0.00
    CHARGE:  cpu time    0.01: real time    0.01
    MIXING:  cpu time    0.00: real time    0.00
    --------------------------------------------
      LOOP:  cpu time    0.25: real time    0.26

 eigenvalue-minimisations  :  1236
 total energy-change (2. order) :-0.1470706E-05  (-0.1884370E-07)
 number of electron       3.0000000 magnetization 
 augmentation part       -0.0391948 magnetization 

 Broyden mixing:
  rms(total) = 0.99366E-04    rms(broyden)= 0.99338E-04
  rms(prec ) = 0.18520E-03
  weight for this iteration     100.00

 eigenvalues of (default mixing * dielectric matrix)
  average eigenvalue GAMMA=   2.1240
  1.0071  2.6355  2.6355  2.2179

 Free energy of the ion-electron system (eV)
  ---------------------------------------------------
  alpha Z        PSCENC =        -0.15332662
  Ewald energy   TEWEN  =       -73.35670894
  -1/2 Hartree   DENC   =        -0.10462658
  -exchange  EXHF       =         0.00000000
  -V(xc)+E(xc)   XCENC  =       -26.29577434
  PAW double counting   =        35.89831935       -3.86526555
  entropy T*S    EENTRO =        -0.00025325
  eigenvalues    EBANDS =        10.49997191
  atomic energy  EATOM  =        53.68800704
  ---------------------------------------------------
  free energy    TOTEN  =        -3.68965696 eV

  energy without entropy =       -3.68940371  energy(sigma->0) =       -3.68957255


--------------------------------------------------------------------------------------------------------




----------------------------------------- Iteration    1(  10)  ---------------------------------------


    POTLOK:  cpu time    0.01: real time    0.01
    SETDIJ:  cpu time    0.00: real time    0.00
     EDDAV:  cpu time    0.16: real time    0.16
       DOS:  cpu time    0.00: real time    0.00
    --------------------------------------------
      LOOP:  cpu time    0.18: real time    0.18

 eigenvalue-minimisations  :   828
 total energy-change (2. order) : 0.2734169E-06  (-0.7520041E-09)
 number of electron       3.0000000 magnetization 
 augmentation part       -0.0391948 magnetization 

 Free energy of the ion-electron system (eV)
  ---------------------------------------------------
  alpha Z        PSCENC =        -0.15332662
  Ewald energy   TEWEN  =       -73.35670894
  -1/2 Hartree   DENC   =        -0.10459165
  -exchange  EXHF       =         0.00000000
  -V(xc)+E(xc)   XCENC  =       -26.29586773
  PAW double counting   =        35.89647864       -3.86335620
  entropy T*S    EENTRO =        -0.00025324
  eigenvalues    EBANDS =        10.49996202
  atomic energy  EATOM  =        53.68800704
  ---------------------------------------------------
  free energy    TOTEN  =        -3.68965669 eV

  energy without entropy =       -3.68940345  energy(sigma->0) =       -3.68957228


--------------------------------------------------------------------------------------------------------




 average (electrostatic) potential at core
  the test charge radii are     1.0406
  (the norm of the test charge is              1.0000)
       1 -72.2956
 
 
 
 E-fermi :   7.9733     XC(G=0): -10.1857     alpha+bet :-14.7760


 k-point   1 :       0.0500    0.0500    0.0500
  band No.  band energies     occupation 
      1      -3.1119      2.00000
      2      19.1939      0.00000
      3      20.2540      0.00000
      4      20.2540      0.00000
      5      22.2721      0.00000
      6      22.2721      0.00000

 k-point   2 :       0.1500    0.0500    0.0500
  band No.  band energies     occupation 
      1      -2.7519      2.00000
      2      16.5274      0.00000
      3      18.2165      0.00000
      4      20.5854      0.00000
      5      22.4733      0.00000
      6      22.9465      0.00000

 k-point   3 :       0.2500    0.0500    0.0500
  band No.  band energies     occupation 
      1      -1.8552      2.00000
      2      12.6253      0.00000
      3      17.4527      0.00000
      4      19.9686      0.00000
      5      22.2788      0.00000
      6      22.7617      0.00000

 k-point   4 :       0.3500    0.0500    0.0500
  band No.  band energies     occupation 
      1      -0.4324      2.00000
      2       9.0149      0.00000
      3      17.1542      0.00000
      4      19.6859      0.00000
      5      20.5310      0.00000
      6      21.8793      0.00000

 k-point   5 :       0.4500    0.0500    0.0500
  band No.  band energies     occupation 
      1       1.5015      2.00000
      2       5.8172      2.00000
      3      17.3228      0.00000
      4      19.0889      0.00000
      5      19.9122      0.00000
      6      20.4890      0.00000

 k-point   6 :      -0.4500    0.0500    0.0500
  band No.  band energies     occupation 
      1       3.0610      2.00000
      2       3.9427      2.00000
      3      17.9605      0.00000
      4      18.1702      0.00000
      5      19.5348      0.00000
      6      20.5232      0.00000

 k-point   7 :      -0.3500    0.0500    0.0500
  band No.  band energies     occupation 
      1       0.8012      2.00000
      2       6.8344      2.00000
      3      17.6980      0.00000
      4      19.0102      0.00000
      5      19.0899      0.00000
      6      21.5966      0.00000

 k-point   8 :      -0.2500    0.0500    0.0500
  band No.  band energies     occupation 
      1      -0.9643      2.00000
      2      10.1766      0.00000
      3      17.6855      0.00000
      4      18.9989      0.00000
      5      20.6132      0.00000
      6      22.9657      0.00000

 k-point   9 :      -0.1500    0.0500    0.0500
  band No.  band energies     occupation 
      1      -2.2133      2.00000
      2      13.9121      0.00000
      3      18.1263      0.00000
      4      19.3835      0.00000
      5      22.4154      0.00000
      6      23.1849      0.00000

 k-point  10 :      -0.0500    0.0500    0.0500
  band No.  band energies     occupation 
      1      -2.9319      2.00000
      2      17.8820      0.00000
      3      19.0109      0.00000
      4      19.9227      0.00000
      5      21.7991      0.00000
      6      23.3553      0.00000

 k-point  11 :       0.1500    0.1500    0.0500
  band No.  band energies     occupation 
      1      -2.5721      2.00000
      2      16.6321      0.00000
      3      17.8088      0.00000
      4      18.8594      0.00000
      5      21.1056      0.00000
      6      22.5880      0.00000

 k-point  12 :       0.2500    0.1500    0.0500
  band No.  band energies     occupation 
      1      -1.8552      2.00000
      2      14.1158      0.00000
      3      16.0166      0.00000
      4      19.1957      0.00000
      5      20.0291      0.00000
      6      21.6086      0.00000

 k-point  13 :       0.3500    0.1500    0.0500
  band No.  band energies     occupation 
      1      -0.6096      2.00000
      2      10.4813      0.00000
      3      15.4973      0.00000
      4      18.0068      0.00000
      5      19.0360      0.00000
      6      23.6980      0.00000

 k-point  14 :       0.4500    0.1500    0.0500
  band No.  band energies     occupation 
      1       1.1515      2.00000
      2       7.1647      2.00000
      3      15.4889      0.00000
      4      16.4158      0.00000
      5      19.1168      0.00000
      6      22.8020      0.00000

 k-point  15 :      -0.4500    0.1500    0.0500
  band No.  band energies     occupation 
      1       3.4028      2.00000
      2       4.2860      2.00000
      3      15.2559      0.00000
      4      16.0036      0.00000
      5      19.6335      0.00000
      6      21.7267      0.00000

 k-point  16 :      -0.3500    0.1500    0.0500
  band No.  band energies     occupation 
      1       1.8502      2.00000
      2       6.1501      2.00000
      3      14.6211      0.00000
      4      16.9486      0.00000
      5      20.5656      0.00000
      6      21.1265      0.00000

 k-point  17 :      -0.2500    0.1500    0.0500
  band No.  band energies     occupation 
      1      -0.0790      2.00000
      2       9.3210      0.00000
      3      14.4748      0.00000
      4      18.3681      0.00000
      5      20.8279      0.00000
      6      22.0688      0.00000

 k-point  18 :      -0.1500    0.1500    0.0500
  band No.  band energies     occupation 
      1      -1.4982      2.00000
      2      12.8118      0.00000
      3      14.8948      0.00000
      4      20.2072      0.00000
      5      20.9645      0.00000
      6      22.9903      0.00000

 k-point  19 :      -0.0500    0.1500    0.0500
  band No.  band energies     occupation 
      1      -2.3925      2.00000
      2      15.2533      0.00000
      3      17.0775      0.00000
      4      20.1387      0.00000
      5      21.9526      0.00000
      6      22.9184      0.00000

 k-point  20 :       0.2500    0.2500    0.0500
  band No.  band energies     occupation 
      1      -1.3201      2.00000
      2      14.5325      0.00000
      3      15.8172      0.00000
      4      16.7977      0.00000
      5      17.4221      0.00000
      6      19.6096      0.00000

 k-point  21 :       0.3500    0.2500    0.0500
  band No.  band energies     occupation 
      1      -0.2560      2.00000
      2      12.3012      0.00000
      3      14.2746      0.00000
      4      15.1833      0.00000
      5      17.4743      0.00000
      6      20.1291      0.00000

 k-point  22 :       0.4500    0.2500    0.0500
  band No.  band energies     occupation 
      1       1.3249      2.00000
      2       8.9750      0.00000
      3      13.3306      0.00000
      4      14.1149      0.00000
      5      17.6786      0.00000
      6      22.6408      0.00000

 k-point  23 :      -0.4500    0.2500    0.0500
  band No.  band energies     occupation 
      1       3.4013      2.00000
      2       5.9778      2.00000
      3      12.0402      0.00000
      4      14.4086      0.00000
      5      18.0991      0.00000
      6      24.7334      0.00000

 k-point  24 :      -0.3500    0.2500    0.0500
  band No.  band energies     occupation 
      1       3.4072      2.00000
      2       5.9544      2.00000
      3      11.2460      0.00000
      4      15.2074      0.00000
      5      18.9568      0.00000
      6      24.0264      0.00000

 k-point  25 :      -0.2500    0.2500    0.0500
  band No.  band energies     occupation 
      1       1.3265      2.00000
      2       8.8260      0.00000
      3      11.0757      0.00000
      4      16.4841      0.00000
      5      20.2578      0.00000
      6      23.5886      0.00000

 k-point  26 :      -0.1500    0.2500    0.0500
  band No.  band energies     occupation 
      1      -0.2556      2.00000
      2      10.6600      0.00000
      3      12.8653      0.00000
      4      18.2195      0.00000
      5      21.8604      0.00000
      6      22.1973      0.00000

 k-point  27 :      -0.0500    0.2500    0.0500
  band No.  band energies     occupation 
      1      -1.3200      2.00000
      2      11.4761      0.00000
      3      16.4270      0.00000
      4      19.7532      0.00000
      5      20.3855      0.00000
      6      23.6788      0.00000

 k-point  28 :       0.3500    0.3500    0.0500
  band No.  band energies     occupation 
      1       0.6235      2.00000
      2      12.6707      0.00000
      3      13.0689      0.00000
      4      14.4302      0.00000
      5      15.3215      0.00000
      6      18.3088      0.00000

 k-point  29 :       0.4500    0.3500    0.0500
  band No.  band energies     occupation 
      1       2.0172      2.00000
      2      10.6682      0.00000
      3      11.1708      0.00000
      4      13.2033      0.00000
      5      16.3327      0.00000
      6      19.1077      0.00000

 k-point  30 :      -0.4500    0.3500    0.0500
  band No.  band energies     occupation 
      1       3.8961      2.00000
      2       8.1130      0.08115
      3       9.2561      0.00000
      4      13.2920      0.00000
      5      16.8731      0.00000
      6      21.9466      0.00000

 k-point  31 :      -0.3500    0.3500    0.0500
  band No.  band energies     occupation 
      1       5.4406      2.00000
      2       6.1553      2.00000
      3       8.3890     -0.01230
      4      13.9262      0.00000
      5      17.6263      0.00000
      6      25.3846      0.00000

 k-point  32 :      -0.2500    0.3500    0.0500
  band No.  band energies     occupation 
      1       3.2353      2.00000
      2       7.3206      2.00004
      3       9.5735      0.00000
      4      15.0483      0.00000
      5      18.8080      0.00000
      6      25.3512      0.00000

 k-point  33 :      -0.1500    0.3500    0.0500
  band No.  band energies     occupation 
      1       1.5013      2.00000
      2       7.4754      2.00243
      3      12.7221      0.00000
      4      16.6403      0.00000
      5      20.3812      0.00000
      6      22.3027      0.00000

 k-point  34 :      -0.0500    0.3500    0.0500
  band No.  band energies     occupation 
      1       0.2737      2.00000
      2       8.0088      0.70470
      3      16.2744      0.00000
      4      18.6618      0.00000
      5      19.6777      0.00000
      6      22.0881      0.00000

 k-point  35 :       0.4500    0.4500    0.0500
  band No.  band energies     occupation 
      1       3.2097      2.00000
      2       8.5395     -0.00047
      3      12.2240      0.00000
      4      13.6588      0.00000
      5      14.4833      0.00000
      6      17.5325      0.00000

 k-point  36 :      -0.4500    0.4500    0.0500
  band No.  band energies     occupation 
      1       4.7966      2.00000
      2       6.9775      2.00000
      3      10.6482      0.00000
      4      12.7185      0.00000
      5      15.8371      0.00000
      6      18.6484      0.00000

 k-point  37 :      -0.3500    0.4500    0.0500
  band No.  band energies     occupation 
      1       5.3003      2.00000
      2       7.4319      2.00088
      3       8.0524      0.38474
      4      13.1300      0.00000
      5      16.7091      0.00000
      6      21.8019      0.00000

 k-point  38 :      -0.2500    0.4500    0.0500
  band No.  band energies     occupation 
      1       4.7415      2.00000
      2       5.6450      2.00000
      3      10.0803      0.00000
      4      14.0876      0.00000
      5      17.7875      0.00000
      6      25.3993      0.00000

 k-point  39 :      -0.1500    0.4500    0.0500
  band No.  band energies     occupation 
      1       3.7452      2.00000
      2       4.6235      2.00000
      3      13.1852      0.00000
      4      15.5247      0.00000
      5      19.2416      0.00000
      6      22.7978      0.00000

 k-point  40 :      -0.0500    0.4500    0.0500
  band No.  band energies     occupation 
      1       2.3722      2.00000
      2       4.9651      2.00000
      3      16.5940      0.00000
      4      17.4030      0.00000
      5      20.0067      0.00000
      6      20.8526      0.00000

 k-point  41 :      -0.4500   -0.4500    0.0500
  band No.  band energies     occupation 
      1       4.6281      2.00000
      2       6.8056      2.00000
      3      12.0568      0.00000
      4      13.5046      0.00000
      5      14.3149      0.00000
      6      17.3700      0.00000

 k-point  42 :      -0.3500   -0.4500    0.0500
  band No.  band energies     occupation 
      1       3.3816      2.00000
      2       8.7037      0.00000
      3      10.8169      0.00000
      4      12.8801      0.00000
      5      16.0028      0.00000
      6      18.8038      0.00000

 k-point  43 :      -0.2500   -0.4500    0.0500
  band No.  band energies     occupation 
      1       2.5378      2.00000
      2       8.4672     -0.00265
      3      11.2138      0.00000
      4      13.6161      0.00000
      5      17.1985      0.00000
      6      22.2295      0.00000

 k-point  44 :      -0.1500   -0.4500    0.0500
  band No.  band energies     occupation 
      1       2.1965      2.00000
      2       6.4868      2.00000
      3      14.1439      0.00000
      4      14.9002      0.00000
      5      18.5531      0.00000
      6      23.7064      0.00000

 k-point  45 :      -0.3500   -0.3500    0.0500
  band No.  band energies     occupation 
      1       1.8433      2.00000
      2      10.5311      0.00000
      3      12.5581      0.00000
      4      13.9675      0.00000
      5      14.8190      0.00000
      6      17.8482      0.00000

 k-point  46 :      -0.2500   -0.3500    0.0500
  band No.  band energies     occupation 
      1       0.7992      2.00000
      2      11.6313      0.00000
      3      12.8365      0.00000
      4      13.7020      0.00000
      5      16.8232      0.00000
      6      19.5533      0.00000

 k-point  47 :      -0.1500   -0.3500    0.0500
  band No.  band energies     occupation 
      1       0.2733      2.00000
      2       9.6467      0.00000
      3      14.6978      0.00000
      4      15.6530      0.00000
      5      18.3037      0.00000
      6      23.1606      0.00000

 k-point  48 :      -0.2500   -0.2500    0.0500
  band No.  band energies     occupation 
      1      -0.4329      2.00000
      2      13.7092      0.00000
      3      14.9875      0.00000
      4      15.0479      0.00000
      5      15.9887      0.00000
      6      18.9033      0.00000

 k-point  49 :      -0.1500   -0.2500    0.0500
  band No.  band energies     occupation 
      1      -1.1421      2.00000
      2      13.1296      0.00000
      3      15.0807      0.00000
      4      17.5714      0.00000
      5      18.2720      0.00000
      6      20.8168      0.00000

 k-point  50 :      -0.1500   -0.1500    0.0500
  band No.  band energies     occupation 
      1      -2.0341      2.00000
      2      15.5078      0.00000
      3      16.7407      0.00000
      4      17.7759      0.00000
      5      19.8915      0.00000
      6      20.4390      0.00000

 k-point  51 :       0.1500    0.1500    0.1500
  band No.  band energies     occupation 
      1      -2.5721      2.00000
      2      15.1891      0.00000
      3      19.3297      0.00000
      4      19.3297      0.00000
      5      22.4849      0.00000
      6      23.7778      0.00000

 k-point  52 :       0.2500    0.1500    0.1500
  band No.  band energies     occupation 
      1      -2.0341      2.00000
      2      13.9614      0.00000
      3      15.9605      0.00000
      4      21.2157      0.00000
      5      22.0208      0.00000
      6      23.5384      0.00000

[...]
      5      22.0435      0.00000
      6      22.7178      0.00000

 k-point  71 :      -0.1500    0.3500    0.1500
  band No.  band energies     occupation 
      1       1.6739      2.00000
      2       9.1575      0.00000
      3      11.3785      0.00000
      4      13.7164      0.00000
      5      20.8537      0.00000
      6      22.8360      0.00000

 k-point  72 :       0.4500    0.4500    0.1500
  band No.  band energies     occupation 
      1       2.1908      2.00000
      2       9.7646      0.00000
      3      10.8978      0.00000
      4      14.2785      0.00000
      5      15.8085      0.00000
      6      20.4857      0.00000

 k-point  73 :      -0.4500    0.4500    0.1500
  band No.  band energies     occupation 
      1       3.7251      2.00000
      2       9.0063      0.00000
      3       9.5251      0.00000
      4      11.7259      0.00000
      5      17.9533      0.00000
      6      20.5197      0.00000

 k-point  74 :      -0.3500    0.4500    0.1500
  band No.  band energies     occupation 
      1       5.6361      2.00000
      2       7.7742      2.04929
      3       8.2132     -0.07071
      4      10.4551      0.00000
      5      19.9222      0.00000
      6      22.2643      0.00000

 k-point  75 :      -0.2500    0.4500    0.1500
  band No.  band energies     occupation 
      1       5.7580      2.00000
      2       6.4887      2.00000
      3       8.7083      0.00000
      4      11.1241      0.00000
      5      20.9721      0.00000
      6      24.6733      0.00000

 k-point  76 :      -0.1500    0.4500    0.1500
  band No.  band energies     occupation 
      1       3.7452      2.00000
      2       6.2920      2.00000
      3      11.5203      0.00000
      4      12.4470      0.00000
      5      21.3683      0.00000
      6      22.3401      0.00000

 k-point  77 :      -0.4500   -0.4500    0.1500
  band No.  band energies     occupation 
      1       4.9648      2.00000
      2       7.1441      2.00000
      3       9.3065      0.00000
      4      13.8153      0.00000
      5      15.2969      0.00000
      6      20.0373      0.00000

 k-point  78 :      -0.3500   -0.4500    0.1500
  band No.  band energies     occupation 
      1       5.1329      2.00000
      2       7.3151      2.00003
      3       9.3343      0.00000
      4      11.5553      0.00000
      5      17.7904      0.00000
      6      20.3719      0.00000

 k-point  79 :      -0.2500   -0.4500    0.1500
  band No.  band energies     occupation 
      1       4.2385      2.00000
      2       8.3117     -0.03779
      3       9.5139      0.00000
      4      10.6610      0.00000
      5      20.0797      0.00000
      6      22.3918      0.00000

 k-point  80 :      -0.3500   -0.3500    0.1500
  band No.  band energies     occupation 
      1       3.5531      2.00000
      2       8.8369      0.00000
      3       9.5061      0.00000
      4      13.9698      0.00000
      5      15.4685      0.00000
      6      20.1891      0.00000

 k-point  81 :      -0.2500   -0.3500    0.1500
  band No.  band energies     occupation 
      1       2.3645      2.00000
      2       9.8120      0.00000
      3      11.0030      0.00000
      4      12.0864      0.00000
      5      18.2767      0.00000
      6      20.8077      0.00000

 k-point  82 :      -0.2500   -0.2500    0.1500
  band No.  band energies     occupation 
      1       0.9748      2.00000
      2      10.2813      0.00000
      3      13.0297      0.00000
      4      14.7425      0.00000
      5      16.3135      0.00000
      6      20.9247      0.00000

 k-point  83 :       0.2500    0.2500    0.2500
  band No.  band energies     occupation 
      1      -1.4983      2.00000
      2      11.3317      0.00000
      3      18.7573      0.00000
      4      18.7573      0.00000
      5      22.2195      0.00000
      6      22.6074      0.00000

 k-point  84 :       0.3500    0.2500    0.2500
  band No.  band energies     occupation 
      1      -0.7868      2.00000
      2      10.3211      0.00000
      3      15.4103      0.00000
      4      20.1199      0.00000
      5      21.0187      0.00000
      6      22.0415      0.00000

 k-point  85 :       0.4500    0.2500    0.2500
  band No.  band energies     occupation 
      1       0.4496      2.00000
      2       9.6608      0.00000
      3      11.8989      0.00000
      4      18.1622      0.00000
      5      20.1838      0.00000
      6      23.6039      0.00000

 k-point  86 :      -0.4500    0.2500    0.2500
  band No.  band energies     occupation 
      1       2.1981      2.00000
      2       7.9904      0.85563
      3      10.2468      0.00000
      4      16.6142      0.00000
      5      18.5554      0.00000
      6      25.2213      0.00000

 k-point  87 :      -0.3500    0.2500    0.2500
  band No.  band energies     occupation 
      1       4.4267      2.00000
      2       5.2837      2.00000
      3      10.5838      0.00000
      4      15.5253      0.00000
      5      17.3534      0.00000
      6      25.6910      0.00000

 k-point  88 :      -0.2500    0.2500    0.2500
  band No.  band energies     occupation 
      1       2.8836      2.00000
      2       7.1530      2.00000
      3      11.5498      0.00000
      4      14.9008      0.00000
      5      16.6196      0.00000
      6      23.9489      0.00000

 k-point  89 :       0.3500    0.3500    0.2500
  band No.  band energies     occupation 
      1      -0.2556      2.00000
      2       9.1760      0.00000
      3      16.7592      0.00000
      4      18.2748      0.00000
      5      18.4324      0.00000
      6      23.7336      0.00000

 k-point  90 :       0.4500    0.3500    0.2500
  band No.  band energies     occupation 
      1       0.8009      2.00000
      2       8.4826     -0.00187
      3      13.6708      0.00000
      4      16.1054      0.00000
      5      20.2433      0.00000
      6      22.7141      0.00000

 k-point  91 :      -0.4500    0.3500    0.2500
  band No.  band energies     occupation 
      1       2.3704      2.00000
      2       8.1567     -0.02855
      3      10.4053      0.00000
      4      14.3352      0.00000
      5      21.0605      0.00000
      6      23.1078      0.00000

 k-point  92 :      -0.3500    0.3500    0.2500
  band No.  band energies     occupation 
      1       4.4301      2.00000
      2       6.8184      2.00000
      3       9.0614      0.00000
      4      13.0379      0.00000
      5      19.7909      0.00000
      6      25.0117      0.00000

 k-point  93 :      -0.2500    0.3500    0.2500
  band No.  band energies     occupation 
      1       4.4084      2.00000
      2       6.9606      2.00000
      3       9.7361      0.00000
      4      12.2472      0.00000
      5      18.9103      0.00000
      6      23.8094      0.00000

 k-point  94 :       0.4500    0.4500    0.2500
  band No.  band energies     occupation 
      1       1.6742      2.00000
      2       7.6614      2.04991
      3      13.6810      0.00000
      4      15.3646      0.00000
      5      17.1070      0.00000
      6      24.3222      0.00000

 k-point  95 :      -0.4500    0.4500    0.2500
  band No.  band energies     occupation 
      1       3.0569      2.00000
      2       7.3013      2.00002
      3      11.6698      0.00000
      4      12.6058      0.00000
      5      19.2194      0.00000
      6      23.9361      0.00000

 k-point  96 :      -0.3500    0.4500    0.2500
  band No.  band energies     occupation 
      1       4.9195      2.00000
      2       7.3176      2.00004
      3       9.4730      0.00000
      4      10.3740      0.00000
      5      22.3188      0.00000
      6      23.2397      0.00000

 k-point  97 :      -0.2500    0.4500    0.2500
  band No.  band energies     occupation 
      1       6.3020      2.00000
      2       7.1418      2.00000
      3       8.4572     -0.00329
      4       9.5365      0.00000
      5      22.1840      0.00000
      6      23.9967      0.00000

 k-point  98 :      -0.4500   -0.4500    0.2500
  band No.  band energies     occupation 
      1       4.2376      2.00000
      2       6.8117      2.00000
      3       9.5812      0.00000
      4      14.5922      0.00000
      5      16.2884      0.00000
      6      23.6910      0.00000

 k-point  99 :      -0.3500   -0.4500    0.2500
  band No.  band energies     occupation 
      1       5.7995      2.00000
      2       6.7730      2.00000
      3       8.0568      0.35669
      4      12.0774      0.00000
      5      18.7538      0.00000
      6      23.6993      0.00000

 k-point 100 :      -0.3500   -0.3500    0.2500
  band No.  band energies     occupation 
      1       5.6319      2.00000
      2       6.6220      2.00000
      3       7.8943      1.61400
      4      14.4372      0.00000
      5      16.1196      0.00000
      6      23.5550      0.00000

 k-point 101 :       0.3500    0.3500    0.3500
  band No.  band energies     occupation 
      1       0.0976      2.00000
      2       7.8467      1.86841
      3      18.6276      0.00000
      4      18.6276      0.00000
      5      20.9722      0.00000
      6      20.9722      0.00000

 k-point 102 :       0.4500    0.3500    0.3500
  band No.  band energies     occupation 
      1       0.9765      2.00000
      2       6.9978      2.00000
      3      15.4037      0.00000
      4      18.6282      0.00000
      5      20.4605      0.00000
      6      20.9982      0.00000

 k-point 103 :      -0.4500    0.3500    0.3500
  band No.  band energies     occupation 
      1       2.3718      2.00000
      2       6.6314      2.00000
      3      11.9078      0.00000
      4      16.7702      0.00000
      5      18.6995      0.00000
      6      23.8280      0.00000

 k-point 104 :      -0.3500    0.3500    0.3500
  band No.  band energies     occupation 
      1       4.2636      2.00000
      2       6.6513      2.00000
      3       8.8985      0.00000
      4      15.3700      0.00000
      5      17.1933      0.00000
      6      27.0885      0.00000

 k-point 105 :       0.4500    0.4500    0.3500
  band No.  band energies     occupation 
      1       1.6760      2.00000
      2       5.9859      2.00000
      3      16.8516      0.00000
      4      16.9212      0.00000
      5      18.6342      0.00000
      6      22.3820      0.00000

 k-point 106 :      -0.4500    0.4500    0.3500
  band No.  band energies     occupation 
      1       2.8898      2.00000
      2       5.4700      2.00000
      3      13.9573      0.00000
      4      14.8331      0.00000
      5      20.5964      0.00000
      6      21.5211      0.00000

 k-point 107 :      -0.3500    0.4500    0.3500
  band No.  band energies     occupation 
      1       4.5928      2.00000
      2       5.4537      2.00000
      3      10.7377      0.00000
      4      13.2049      0.00000
      5      19.9375      0.00000
      6      23.7456      0.00000

 k-point 108 :      -0.4500   -0.4500    0.3500
  band No.  band energies     occupation 
      1       3.9105      2.00000
      2       4.7998      2.00000
      3      12.5385      0.00000
      4      15.8360      0.00000
      5      17.6661      0.00000
      6      24.4400      0.00000

 k-point 109 :       0.4500    0.4500    0.4500
  band No.  band energies     occupation 
      1       2.1982      2.00000
      2       4.7949      2.00000
      3      18.9424      0.00000
      4      18.9424      0.00000
      5      19.7466      0.00000
      6      19.7466      0.00000

 k-point 110 :      -0.4500    0.4500    0.4500
  band No.  band energies     occupation 
      1       3.2329      2.00000
      2       4.1142      2.00000
      3      15.8898      0.00000
      4      17.5474      0.00000
      5      19.3152      0.00000
      6      21.4644      0.00000


--------------------------------------------------------------------------------------------------------


 soft charge-density along one line, spin component           1
         0         1         2         3         4         5         6         7         8         9
 total charge-density along one line
 
 pseudopotential strength for first ion, spin component:           1
  8.547   0.000  -0.006   0.000   0.000   0.000   0.000   0.000   0.000   0.000   0.000   0.000   0.000   0.000   0.000   0.000
 -0.006   0.000   0.000   0.000   0.000   0.000   0.000   0.000   0.000   0.000   0.000   0.000   0.000   0.000   0.000   0.000
  0.000   0.000   0.000   0.000   2.015   0.000   0.000   0.000   0.000   0.000  -0.026   0.000   0.000   0.000   0.000   0.000
  0.000   0.000   0.000   0.000   0.000   0.000   2.015   0.000   0.000   0.000   0.000   0.000  -0.026   0.000   0.000   0.000
  0.000   0.000   0.000   0.000   0.000   0.000   0.000   0.000   2.015   0.000   0.000   0.000   0.000   0.000  -0.026   0.000
  0.000   0.000   0.000   0.000  -0.026   0.000   0.000   0.000   0.000   0.000  -0.012   0.000   0.000   0.000   0.000   0.000
  0.000   0.000   0.000   0.000   0.000   0.000  -0.026   0.000   0.000   0.000   0.000   0.000  -0.012   0.000   0.000   0.000
  0.000   0.000   0.000   0.000   0.000   0.000   0.000   0.000  -0.026   0.000   0.000   0.000   0.000   0.000  -0.012   0.000
 total augmentation occupancy for first ion, spin component:           1
  1.330  -0.684   0.000   0.000   0.000   0.000   0.000   0.000
 -0.684   0.626   0.000   0.000   0.000   0.000   0.000   0.000
  0.000   0.000   0.718   0.000   0.000  -0.217   0.000   0.000
  0.000   0.000   0.000   0.718   0.000   0.000  -0.217   0.000
  0.000   0.000   0.000   0.000   0.718   0.000   0.000  -0.217
  0.000   0.000  -0.217   0.000   0.000   0.071   0.000   0.000
  0.000   0.000   0.000  -0.217   0.000   0.000   0.071   0.000
  0.000   0.000   0.000   0.000  -0.217   0.000   0.000   0.071


------------------------ aborting loop because EDIFF is reached ----------------------------------------


    CHARGE:  cpu time    0.01: real time    0.01
    FORLOC:  cpu time    0.00: real time    0.00
    FORNL :  cpu time    0.01: real time    0.01
    STRESS:  cpu time    0.11: real time    0.11
    FORCOR:  cpu time    0.01: real time    0.01
    FORHAR:  cpu time    0.00: real time    0.00
    MIXING:  cpu time    0.00: real time    0.00
    FORVDW:  cpu time    0.00: real time    0.00

  FORCE on cell =-STRESS in cart. coord.  units (eV):
  Direction    XX          YY          ZZ          XY          YZ          ZX
  --------------------------------------------------------------------------------------
  Alpha Z    -0.15333    -0.15333    -0.15333
  Ewald     -24.45224   -24.45224   -24.45224     0.00000     0.00000     0.00000
  Hartree     0.03487     0.03487     0.03487     0.00000     0.00000     0.00000
  E(xc)      -8.64135    -8.64135    -8.64135     0.00001     0.00001     0.00001
  Local       0.18479     0.18479     0.18479     0.00000     0.00000     0.00000
  n-local    19.30803    18.87838    19.07084     0.20638    -0.27701     0.00885
  augment    -1.02592    -1.02592    -1.02592     0.00000     0.00000     0.00000
  Kinetic    12.52391    10.86406    21.44013    -4.17148     4.68053    -0.00450
  Fock        0.00000     0.00000     0.00000     0.00000     0.00000     0.00000
  -------------------------------------------------------------------------------------
  Total      -0.02472    -0.02472    -0.02472     0.00000     0.00000     0.00000
  in kB      -2.38528    -2.38528    -2.38528     0.00000     0.00000     0.00000
  external pressure =       -2.39 kB  Pullay stress =        0.00 kB


 VOLUME and BASIS-vectors are now :
 -----------------------------------------------------------------------------
  energy-cutoff  :      240.44
  volume of cell :       16.61
      direct lattice vectors                 reciprocal lattice vectors
     0.000000000  2.025000000  2.025000000    -0.246913580  0.246913580  0.246913580
     2.025000000  0.000000000  2.025000000     0.246913580 -0.246913580  0.246913580
     2.025000000  2.025000000  0.000000000     0.246913580  0.246913580 -0.246913580

  length of vectors
     2.863782464  2.863782464  2.863782464     0.427666866  0.427666866  0.427666866


 FORCES acting on ions
    electron-ion (+dipol)            ewald-force                    non-local-force                 convergence-correction
 -----------------------------------------------------------------------------------------------
   0.105E-15 -.724E-15 -.271E-15   -.758E-16 -.122E-15 -.249E-16   0.000E+00 0.000E+00 0.207E-24   -.639E-18 -.441E-18 -.668E-17
 -----------------------------------------------------------------------------------------------
   0.105E-15 -.724E-15 -.271E-15   -.758E-16 -.122E-15 -.249E-16   0.000E+00 0.000E+00 0.207E-24   -.639E-18 -.441E-18 -.668E-17
 
 
 POSITION                                       TOTAL-FORCE (eV/Angst)
 -----------------------------------------------------------------------------------
      0.00000      0.00000      0.00000         0.000000      0.000000      0.000000
 -----------------------------------------------------------------------------------
    total drift:                                0.000000      0.000000      0.000000


--------------------------------------------------------------------------------------------------------



  FREE ENERGIE OF THE ION-ELECTRON SYSTEM (eV)
  ---------------------------------------------------
  free  energy   TOTEN  =        -3.68965669 eV

  energy  without entropy=       -3.68940345  energy(sigma->0) =       -3.68957228
 


--------------------------------------------------------------------------------------------------------


    POTLOK:  cpu time    0.02: real time    0.02


--------------------------------------------------------------------------------------------------------


     LOOP+:  cpu time    3.12: real time    3.16
    4ORBIT:  cpu time    0.00: real time    0.00

 ----------------------------------------------------------------------------- 
|                                                                             |
|           W    W    AA    RRRRR   N    N  II  N    N   GGGG   !!!           |
|           W    W   A  A   R    R  NN   N  II  NN   N  G    G  !!!           |
|           W    W  A    A  R    R  N N  N  II  N N  N  G       !!!           |
|           W WW W  AAAAAA  RRRRR   N  N N  II  N  N N  G  GGG   !            |
|           WW  WW  A    A  R   R   N   NN  II  N   NN  G    G                |
|           W    W  A    A  R    R  N    N  II  N    N   GGGG   !!!           |
|                                                                             |
|      The partial DOS and the PROCAR file are not evaluated for NPAR/=1      |
|      please rerun with NPAR=1                                               |
|                                                                             |
 ----------------------------------------------------------------------------- 


 total amount of memory used by VASP on root node    32974. kBytes
========================================================================

   base      :      30000. kBytes
   nonl-proj :       1058. kBytes
   fftplans  :        471. kBytes
   grid      :        608. kBytes
   one-center:          3. kBytes
   wavefun   :        834. kBytes
 
  
  
 General timing and accounting informations for this job:
 ========================================================
  
                  Total CPU time used (sec):        3.896
                            User time (sec):        3.696
                          System time (sec):        0.199
                         Elapsed time (sec):        4.000
  
                   Maximum memory used (kb):       37812.
                   Average memory used (kb):           0.
  
                          Minor page faults:         9797
                          Major page faults:            0
                 Voluntary context switches:         1295
