<?xml version="1.0" encoding="ISO-8859-1"?>
<modeling>
 <generator>
  <i name="program" type="string">vasp </i>
  <i name="version" type="string">5.3.2  </i>
  <i name="subversion" type="string">13Sep12 (build Jun 30 2016 14:08:18) complex                          parallel </i>
  <i name="platform" type="string">LinuxIFC </i>
  <i name="date" type="string">2017 11 09 </i>
  <i name="time" type="string">16:16:57 </i>
 </generator>
 <incar>
  <i type="string" name="SYSTEM"> Al</i>
  <i type="string" name="PREC">normal</i>
  <i name="EDIFF">      0.00000100</i>
  <v name="RWIGS">      1.40200000</v>
  <i type="int" name="ISMEAR">     1</i>
  <i type="logical" name="LWAVE"> F  </i>
 </incar>
 <kpoints>
  <generation param="Monkhorst-Pack">
   <v type="int" name="divisions">      10       10       10 </v>
   <v name="usershift">      0.00000000       0.00000000       0.00000000 </v>
   <v name="genvec1">      0.10000000       0.00000000       0.00000000 </v>
   <v name="genvec2">      0.00000000       0.10000000       0.00000000 </v>
   <v name="genvec3">      0.00000000       0.00000000       0.10000000 </v>
   <v name="shift">      0.50000000       0.50000000       0.50000000 </v>
  </generation>
  <varray name="kpointlist" >
   <v>       0.05000000       0.05000000       0.05000000 </v>
   <v>       0.15000000       0.05000000       0.05000000 </v>
   <v>       0.25000000       0.05000000       0.05000000 </v>
   <v>       0.35000000       0.05000000       0.05000000 </v>
   <v>       0.45000000       0.05000000       0.05000000 </v>
   <v>      -0.45000000       0.05000000       0.05000000 </v>
   <v>      -0.35000000       0.05000000       0.05000000 </v>
   <v>      -0.25000000       0.05000000       0.05000000 </v>
   <v>      -0.15000000       0.05000000       0.05000000 </v>
   <v>      -0.05000000       0.05000000       0.05000000 </v>
   <v>       0.15000000       0.15000000       0.05000000 </v>
   <v>       0.25000000       0.15000000       0.05000000 </v>
   <v>       0.35000000       0.15000000       0.05000000 </v>
   <v>       0.45000000       0.15000000       0.05000000 </v>
   <v>      -0.45000000       0.15000000       0.05000000 </v>
   <v>      -0.35000000       0.15000000       0.05000000 </v>
   <v>      -0.25000000       0.15000000       0.05000000 </v>
   <v>      -0.15000000       0.15000000       0.05000000 </v>
   <v>      -0.05000000       0.15000000       0.05000000 </v>
   <v>       0.25000000       0.25000000       0.05000000 </v>
   <v>       0.35000000       0.25000000       0.05000000 </v>
   <v>       0.45000000       0.25000000       0.05000000 </v>
   <v>      -0.45000000       0.25000000       0.05000000 </v>
   <v>      -0.35000000       0.25000000       0.05000000 </v>
   <v>      -0.25000000       0.25000000       0.05000000 </v>
   <v>      -0.15000000       0.25000000       0.05000000 </v>
   <v>      -0.05000000       0.25000000       0.05000000 </v>
   <v>       0.35000000       0.35000000       0.05000000 </v>
   <v>       0.45000000       0.35000000       0.05000000 </v>
   <v>      -0.45000000       0.35000000       0.05000000 </v>
   <v>      -0.35000000       0.35000000       0.05000000 </v>
   <v>      -0.25000000       0.35000000       0.05000000 </v>
   <v>      -0.15000000       0.35000000       0.05000000 </v>
   <v>      -0.05000000       0.35000000       0.05000000 </v>
   <v>       0.45000000       0.45000000       0.05000000 </v>
   <v>      -0.45000000       0.45000000       0.05000000 </v>
   <v>      -0.35000000       0.45000000       0.05000000 </v>
   <v>      -0.25000000       0.45000000       0.05000000 </v>
   <v>      -0.15000000       0.45000000       0.05000000 </v>
   <v>      -0.05000000       0.45000000       0.05000000 </v>
   <v>      -0.45000000      -0.45000000       0.05000000 </v>
   <v>      -0.35000000      -0.45000000       0.05000000 </v>
   <v>      -0.25000000      -0.45000000       0.05000000 </v>
   <v>      -0.15000000      -0.45000000       0.05000000 </v>
   <v>      -0.35000000      -0.35000000       0.05000000 </v>
   <v>      -0.25000000      -0.35000000       0.05000000 </v>
   <v>      -0.15000000      -0.35000000       0.05000000 </v>
   <v>      -0.25000000      -0.25000000       0.05000000 </v>
   <v>      -0.15000000      -0.25000000       0.05000000 </v>
   <v>      -0.15000000      -0.15000000       0.05000000 </v>
   <v>       0.15000000       0.15000000       0.15000000 </v>
   <v>       0.25000000       0.15000000       0.15000000 </v>
   <v>       0.35000000       0.15000000       0.15000000 </v>
   <v>       0.45000000       0.15000000       0.15000000 </v>
   <v>      -0.45000000       0.15000000       0.15000000 </v>
   <v>      -0.35000000       0.15000000       0.15000000 </v>
   <v>      -0.25000000       0.15000000       0.15000000 </v>
   <v>      -0.15000000       0.15000000       0.15000000 </v>
   <v>       0.25000000       0.25000000       0.15000000 </v>
   <v>       0.35000000       0.25000000       0.15000000 </v>
   <v>       0.45000000       0.25000000       0.15000000 </v>
   <v>      -0.45000000       0.25000000       0.15000000 </v>
   <v>      -0.35000000       0.25000000       0.15000000 </v>
   <v>      -0.25000000       0.25000000       0.15000000 </v>
   <v>      -0.15000000       0.25000000       0.15000000 </v>
   <v>       0.35000000       0.35000000       0.15000000 </v>
   <v>       0.45000000       0.35000000       0.15000000 </v>
   <v>      -0.45000000       0.35000000       0.15000000 </v>
   <v>      -0.35000000       0.35000000       0.15000000 </v>
   <v>      -0.25000000       0.35000000       0.15000000 </v>
   <v>      -0.15000000       0.35000000       0.15000000 </v>
   <v>       0.45000000       0.45000000       0.15000000 </v>
   <v>      -0.45000000       0.45000000       0.15000000 </v>
   <v>      -0.35000000       0.45000000       0.15000000 </v>
   <v>      -0.25000000       0.45000000       0.15000000 </v>
   <v>      -0.15000000       0.45000000       0.15000000 </v>
   <v>      -0.45000000      -0.45000000       0.15000000 </v>
   <v>      -0.35000000      -0.45000000       0.15000000 </v>
   <v>      -0.25000000      -0.45000000       0.15000000 </v>
   <v>      -0.35000000      -0.35000000       0.15000000 </v>
   <v>      -0.25000000      -0.35000000       0.15000000 </v>
   <v>      -0.25000000      -0.25000000       0.15000000 </v>
   <v>       0.25000000       0.25000000       0.25000000 </v>
   <v>       0.35000000       0.25000000       0.25000000 </v>
   <v>       0.45000000       0.25000000       0.25000000 </v>
   <v>      -0.45000000       0.25000000       0.25000000 </v>
   <v>      -0.35000000       0.25000000       0.25000000 </v>
   <v>      -0.25000000       0.25000000       0.25000000 </v>
   <v>       0.35000000       0.35000000       0.25000000 </v>
   <v>       0.45000000       0.35000000       0.25000000 </v>
   <v>      -0.45000000       0.35000000       0.25000000 </v>
   <v>      -0.35000000       0.35000000       0.25000000 </v>
   <v>      -0.25000000       0.35000000       0.25000000 </v>
   <v>       0.45000000       0.45000000       0.25000000 </v>
   <v>      -0.45000000       0.45000000       0.25000000 </v>
   <v>      -0.35000000       0.45000000       0.25000000 </v>
   <v>      -0.25000000       0.45000000       0.25000000 </v>
   <v>      -0.45000000      -0.45000000       0.25000000 </v>
   <v>      -0.35000000      -0.45000000       0.25000000 </v>
   <v>      -0.35000000      -0.35000000       0.25000000 </v>
   <v>       0.35000000       0.35000000       0.35000000 </v>
   <v>       0.45000000       0.35000000       0.35000000 </v>
   <v>      -0.45000000       0.35000000       0.35000000 </v>
   <v>      -0.35000000       0.35000000       0.35000000 </v>
   <v>       0.45000000       0.45000000       0.35000000 </v>
   <v>      -0.45000000       0.45000000       0.35000000 </v>
   <v>      -0.35000000       0.45000000       0.35000000 </v>
   <v>      -0.45000000      -0.45000000       0.35000000 </v>
   <v>       0.45000000       0.45000000       0.45000000 </v>
   <v>      -0.45000000       0.45000000       0.45000000 </v>
  </varray>
  <varray name="weights" >
   <v>       0.00200000 </v>
   <v>       0.00600000 </v>
   <v>       0.00600000 </v>
   <v>       0.00600000 </v>
   <v>       0.00600000 </v>
   <v>       0.00600000 </v>
   <v>       0.00600000 </v>
   <v>       0.00600000 </v>
   <v>       0.00600000 </v>
   <v>       0.00600000 </v>
   <v>       0.00600000 </v>
   <v>       0.01200000 </v>
   <v>       0.01200000 </v>
   <v>       0.01200000 </v>
   <v>       0.01200000 </v>
   <v>       0.01200000 </v>
   <v>       0.01200000 </v>
   <v>       0.01200000 </v>
   <v>       0.01200000 </v>
   <v>       0.00600000 </v>
   <v>       0.01200000 </v>
   <v>       0.01200000 </v>
   <v>       0.01200000 </v>
   <v>       0.01200000 </v>
   <v>       0.01200000 </v>
   <v>       0.01200000 </v>
   <v>       0.01200000 </v>
   <v>       0.00600000 </v>
   <v>       0.01200000 </v>
   <v>       0.01200000 </v>
   <v>       0.01200000 </v>
   <v>       0.01200000 </v>
   <v>       0.01200000 </v>
   <v>       0.01200000 </v>
   <v>       0.00600000 </v>
   <v>       0.01200000 </v>
   <v>       0.01200000 </v>
   <v>       0.01200000 </v>
   <v>       0.01200000 </v>
   <v>       0.01200000 </v>
   <v>       0.00600000 </v>
   <v>       0.01200000 </v>
   <v>       0.01200000 </v>
   <v>       0.01200000 </v>
   <v>       0.00600000 </v>
   <v>       0.01200000 </v>
   <v>       0.01200000 </v>
   <v>       0.00600000 </v>
   <v>       0.01200000 </v>
   <v>       0.00600000 </v>
   <v>       0.00200000 </v>
   <v>       0.00600000 </v>
   <v>       0.00600000 </v>
   <v>       0.00600000 </v>
   <v>       0.00600000 </v>
   <v>       0.00600000 </v>
   <v>       0.00600000 </v>
   <v>       0.00600000 </v>
   <v>       0.00600000 </v>
   <v>       0.01200000 </v>
   <v>       0.01200000 </v>
   <v>       0.01200000 </v>
   <v>       0.01200000 </v>
   <v>       0.01200000 </v>
   <v>       0.01200000 </v>
   <v>       0.00600000 </v>
   <v>       0.01200000 </v>
   <v>       0.01200000 </v>
   <v>       0.01200000 </v>
   <v>       0.01200000 </v>
   <v>       0.01200000 </v>
   <v>       0.00600000 </v>
   <v>       0.01200000 </v>
   <v>       0.01200000 </v>
   <v>       0.01200000 </v>
   <v>       0.01200000 </v>
   <v>       0.00600000 </v>
   <v>       0.01200000 </v>
   <v>       0.01200000 </v>
   <v>       0.00600000 </v>
   <v>       0.01200000 </v>
   <v>       0.00600000 </v>
   <v>       0.00200000 </v>
   <v>       0.00600000 </v>
   <v>       0.00600000 </v>
   <v>       0.00600000 </v>
   <v>       0.00600000 </v>
   <v>       0.00600000 </v>
   <v>       0.00600000 </v>
   <v>       0.01200000 </v>
   <v>       0.01200000 </v>
   <v>       0.01200000 </v>
   <v>       0.01200000 </v>
   <v>       0.00600000 </v>
   <v>       0.01200000 </v>
   <v>       0.01200000 </v>
   <v>       0.01200000 </v>
   <v>       0.00600000 </v>
   <v>       0.01200000 </v>
   <v>       0.00600000 </v>
   <v>       0.00200000 </v>
   <v>       0.00600000 </v>
   <v>       0.00600000 </v>
   <v>       0.00600000 </v>
   <v>       0.00600000 </v>
   <v>       0.01200000 </v>
   <v>       0.01200000 </v>
   <v>       0.00600000 </v>
   <v>       0.00200000 </v>
   <v>       0.00600000 </v>
  </varray>
 </kpoints>
 <parameters>
  <separator name="general" >
   <i type="string" name="SYSTEM">Al</i>
   <i type="logical" name="LCOMPAT"> F  </i>
  </separator>
  <separator name="electronic" >
   <i type="string" name="PREC">normal</i>
   <i name="ENMAX">    240.43700000</i>
   <i name="ENAUG">    291.05200000</i>
   <i name="EDIFF">      0.00000100</i>
   <i type="int" name="IALGO">    38</i>
   <i type="int" name="IWAVPR">    10</i>
   <i type="int" name="NBANDS">     6</i>
   <i name="NELECT">      3.00000000</i>
   <i type="int" name="TURBO">     0</i>
   <i type="int" name="IRESTART">     0</i>
   <i type="int" name="NREBOOT">     0</i>
   <i type="int" name="NMIN">     0</i>
   <i name="EREF">      0.00000000</i>
   <separator name="electronic smearing" >
    <i type="int" name="ISMEAR">     1</i>
    <i name="SIGMA">      0.20000000</i>
    <i name="KSPACING">      0.50000000</i>
    <i type="logical" name="KGAMMA"> T  </i>
   </separator>
   <separator name="electronic projectors" >
    <i type="logical" name="LREAL"> F  </i>
    <v name="ROPT">      0.00000000</v>
    <i type="int" name="LMAXPAW">  -100</i>
    <i type="int" name="LMAXMIX">     2</i>
    <i type="logical" name="NLSPLINE"> F  </i>
   </separator>
   <separator name="electronic startup" >
    <i type="int" name="ISTART">     0</i>
    <i type="int" name="ICHARG">     2</i>
    <i type="int" name="INIWAV">     1</i>
   </separator>
   <separator name="electronic spin" >
    <i type="int" name="ISPIN">     1</i>
    <i type="logical" name="LNONCOLLINEAR"> F  </i>
    <v name="MAGMOM">      1.00000000</v>
    <i name="NUPDOWN">     -1.00000000</i>
    <i type="logical" name="LSORBIT"> F  </i>
    <v name="SAXIS">      0.00000000      0.00000000      1.00000000</v>
    <i type="logical" name="LSPIRAL"> F  </i>
    <v name="QSPIRAL">      0.00000000      0.00000000      0.00000000</v>
    <i type="logical" name="LZEROZ"> F  </i>
   </separator>
   <separator name="electronic exchange-correlation" >
    <i type="logical" name="LASPH"> F  </i>
    <i type="logical" name="LMETAGGA"> F  </i>
   </separator>
   <separator name="electronic convergence" >
    <i type="int" name="NELM">    60</i>
    <i type="int" name="NELMDL">    -5</i>
    <i type="int" name="NELMIN">     2</i>
    <i name="ENINI">    240.43700000</i>
    <separator name="electronic convergence detail" >
     <i type="logical" name="LDIAG"> T  </i>
     <i type="logical" name="LSUBROT"> T  </i>
     <i name="WEIMIN">      0.00000000</i>
     <i name="EBREAK">      0.00000004</i>
     <i name="DEPER">      0.30000000</i>
     <i type="int" name="NRMM">     4</i>
     <i name="TIME">      0.40000000</i>
    </separator>
   </separator>
   <separator name="electronic mixer" >
    <i name="AMIX">      0.40000000</i>
    <i name="BMIX">      1.00000000</i>
    <i name="AMIN">      0.10000000</i>
    <i name="AMIX_MAG">      1.60000000</i>
    <i name="BMIX_MAG">      1.00000000</i>
    <separator name="electronic mixer details" >
     <i type="int" name="IMIX">     4</i>
     <i type="int" name="MAXMIX">   -45</i>
     <i name="WC">    100.00000000</i>
     <i type="int" name="INIMIX">     1</i>
     <i type="int" name="MIXPRE">     1</i>
     <i type="int" name="MREMOVE">     5</i>
    </separator>
   </separator>
   <separator name="electronic dipolcorrection" >
    <i type="logical" name="LDIPOL"> F  </i>
    <i type="logical" name="LMONO"> F  </i>
    <i type="int" name="IDIPOL">     0</i>
    <i name="EPSILON">      1.00000000</i>
    <v name="DIPOL">   -100.00000000   -100.00000000   -100.00000000</v>
    <i name="EFIELD">      0.00000000</i>
   </separator>
  </separator>
  <separator name="grids" >
   <i type="int" name="NGX">    12</i>
   <i type="int" name="NGY">    12</i>
   <i type="int" name="NGZ">    12</i>
   <i type="int" name="NGXF">    24</i>
   <i type="int" name="NGYF">    24</i>
   <i type="int" name="NGZF">    24</i>
   <i type="logical" name="ADDGRID"> F  </i>
  </separator>
  <separator name="ionic" >
   <i type="int" name="NSW">     0</i>
   <i type="int" name="IBRION">    -1</i>
   <i type="int" name="ISIF">     2</i>
   <i name="PSTRESS">      0.00000000</i>
   <i name="EDIFFG">      0.00001000</i>
   <i type="int" name="NFREE">     0</i>
   <i name="POTIM">      0.50000000</i>
   <i name="SMASS">     -3.00000000</i>
   <i name="SCALEE">      1.00000000</i>
  </separator>
  <separator name="ionic md" >
   <i name="TEBEG">      0.00010000</i>
   <i name="TEEND">      0.00010000</i>
   <i type="int" name="NBLOCK">     1</i>
   <i type="int" name="KBLOCK">     1</i>
   <i type="int" name="NPACO">   256</i>
   <i name="APACO">     16.00000000</i>
  </separator>
  <separator name="symmetry" >
   <i type="int" name="ISYM">     2</i>
   <i name="SYMPREC">      0.00001000</i>
  </separator>
  <separator name="dos" >
   <i type="logical" name="LORBIT"> F  </i>
   <v name="RWIGS">      1.40200000</v>
   <i type="int" name="NEDOS">   301</i>
   <i name="EMIN">     10.00000000</i>
   <i name="EMAX">    -10.00000000</i>
   <i name="EFERMI">      0.00000000</i>
  </separator>
  <separator name="writing" >
   <i type="int" name="NWRITE">     2</i>
   <i type="logical" name="LWAVE"> F  </i>
   <i type="logical" name="LCHARG"> T  </i>
   <i type="logical" name="LPARD"> F  </i>
   <i type="logical" name="LVTOT"> F  </i>
   <i type="logical" name="LVHAR"> F  </i>
   <i type="logical" name="LELF"> F  </i>
   <i type="logical" name="LOPTICS"> F  </i>
   <v name="STM">      0.00000000      0.00000000      0.00000000      0.00000000      0.00000000      0.00000000      0.00000000</v>
  </separator>
  <separator name="performance" >
   <i type="int" name="NPAR">     2</i>
   <i type="int" name="NSIM">     4</i>
   <i type="int" name="NBLK">    -1</i>
   <i type="logical" name="LPLANE"> T  </i>
   <i type="logical" name="LSCALAPACK"> F  </i>
   <i type="logical" name="LSCAAWARE"> F  </i>
   <i type="logical" name="LSCALU"> F  </i>
   <i type="logical" name="LASYNC"> F  </i>
   <i type="logical" name="LORBITALREAL"> F  </i>
  </separator>
  <separator name="miscellaneous" >
   <i type="int" name="IDIOT">     3</i>
   <i type="logical" name="LMUSIC"> F  </i>
   <v name="POMASS">     26.98200000</v>
   <v name="DARWINR">      0.00000000</v>
   <v name="DARWINV">      1.00000000</v>
   <i type="logical" name="LCORR"> T  </i>
  </separator>
  <i type="logical" name="GGA_COMPAT"> T  </i>
  <i type="logical" name="LBERRY"> F  </i>
  <i type="int" name="ICORELEVEL">     0</i>
  <i type="logical" name="LDAU"> F  </i>
  <i type="int" name="I_CONSTRAINED_M">     0</i>
  <separator name="electronic exchange-correlation" >
   <i type="string" name="GGA">--</i>
   <i type="int" name="VOSKOWN">     0</i>
   <i type="logical" name="LHFCALC"> F  </i>
   <i type="string" name="PRECFOCK"></i>
   <i type="logical" name="LSYMGRAD"> F  </i>
   <i type="logical" name="LHFONE"> F  </i>
   <i type="logical" name="LRHFCALC"> F  </i>
   <i type="logical" name="LTHOMAS"> F  </i>
   <i type="logical" name="LMODELHF"> F  </i>
   <i name="ENCUT4O">     -1.00000000</i>
   <i type="int" name="EXXOEP">     0</i>
   <i type="int" name="FOURORBIT">     0</i>
   <i name="AEXX">      0.00000000</i>
   <i name="HFALPHA">      0.00000000</i>
   <i name="MCALPHA">      0.00000000</i>
   <i name="ALDAX">      1.00000000</i>
   <i name="AGGAX">      1.00000000</i>
   <i name="ALDAC">      1.00000000</i>
   <i name="AGGAC">      1.00000000</i>
   <i type="int" name="NKREDX">     1</i>
   <i type="int" name="NKREDY">     1</i>
   <i type="int" name="NKREDZ">     1</i>
   <i type="logical" name="SHIFTRED"> F  </i>
   <i type="logical" name="ODDONLY"> F  </i>
   <i type="logical" name="EVENONLY"> F  </i>
   <i type="int" name="LMAXFOCK">     0</i>
   <i type="int" name="NMAXFOCKAE">     0</i>
   <i type="logical" name="LFOCKAEDFT"> F  </i>
   <i name="HFSCREEN">      0.00000000</i>
   <i name="HFSCREENC">      0.00000000</i>
   <i type="int" name="NBANDSGWLOW">     0</i>
  </separator>
  <separator name="vdW DFT" >
   <i type="logical" name="LUSE_VDW"> F  </i>
   <i name="Zab_VDW">     -0.84910000</i>
   <i name="PARAM1">      0.12340000</i>
   <i name="PARAM2">      1.00000000</i>
   <i name="PARAM3">      0.00000000</i>
  </separator>
  <separator name="model GW" >
   <i type="int" name="MODEL_GW">     0</i>
   <i name="MODEL_EPS0">      9.96451875</i>
   <i name="MODEL_ALPHA">      1.00000000</i>
  </separator>
  <separator name="linear response parameters" >
   <i type="logical" name="LEPSILON"> F  </i>
   <i type="logical" name="LRPA"> F  </i>
   <i type="logical" name="LNABLA"> F  </i>
   <i type="logical" name="LVEL"> F  </i>
   <i type="int" name="KINTER">     0</i>
   <i name="CSHIFT">      0.10000000</i>
   <i name="OMEGAMAX">     -1.00000000</i>
   <i name="DEG_THRESHOLD">      0.00200000</i>
  </separator>
  <separator name="orbital magnetization" >
   <i type="logical" name="NUCIND"> F  </i>
   <v name="MAGPOS">      0.00000000      0.00000000      0.00000000</v>
   <i type="logical" name="LNICSALL"> T  </i>
   <i type="logical" name="ORBITALMAG"> F  </i>
   <i type="logical" name="LMAGBLOCH"> F  </i>
   <i type="logical" name="LCHIMAG"> F  </i>
   <i type="logical" name="LGAUGE"> T  </i>
   <i type="int" name="MAGATOM">     0</i>
   <v name="MAGDIPOL">      0.00000000      0.00000000      0.00000000</v>
   <v name="AVECCONST">      0.00000000      0.00000000      0.00000000</v>
  </separator>
  <separator name="response functions" >
   <i type="logical" name="LADDER"> F  </i>
   <i type="logical" name="LHARTREE"> T  </i>
   <i type="int" name="IBSE">     0</i>
   <i type="logical" name="LTCTE"> F  </i>
   <i type="logical" name="LTETE"> F  </i>
   <i type="logical" name="LTRIPLET"> F  </i>
   <i type="logical" name="LFXCEPS"> F  </i>
   <i type="logical" name="L2ORDER"> F  </i>
   <i type="logical" name="LUSEW"> F  </i>
   <i name="ENCUTGW">     -2.00000000</i>
   <i name="ENCUTGWSOFT">     -2.00000000</i>
   <i name="ENCUTLF">     -1.00000000</i>
   <i type="int" name="LMAXMP2">    -1</i>
   <i name="SCISSOR">      0.00000000</i>
   <i type="int" name="NOMEGA">     0</i>
   <i type="int" name="NOMEGAR">     0</i>
   <i type="int" name="NBANDSGW">    -1</i>
   <i type="int" name="NBANDSO">    -1</i>
   <i type="int" name="NBANDSV">    -1</i>
   <i type="int" name="NELM">     1</i>
   <i type="int" name="DIM">     3</i>
   <i type="int" name="ANTIRES">     0</i>
   <i name="OMEGAMAX">    -30.00000000</i>
   <i name="OMEGATL">   -200.00000000</i>
   <i type="int" name="OMEGAGRID">     0</i>
   <i name="CSHIFT">     -0.10000000</i>
   <i type="logical" name="SELFENERGY"> F  </i>
   <i type="logical" name="LSPECTRAL"> F  </i>
   <i type="logical" name="ODDONLYGW"> F  </i>
   <i type="logical" name="EVENONLYGW"> F  </i>
   <i type="int" name="NKREDLFX">     1</i>
   <i type="int" name="NKREDLFY">     1</i>
   <i type="int" name="NKREDLFZ">     1</i>
   <i type="int" name="MAXMEM">  1800</i>
   <i type="int" name="TELESCOPE">     0</i>
  </separator>
 </parameters>
 <atominfo>
  <atoms>       1 </atoms>
  <types>       1 </types>
  <array name="atoms" >
   <dimension dim="1">ion</dimension>
   <field type="string">element</field>
   <field type="int">atomtype</field>
   <set>
    <rc><c>Al</c><c>   1</c></rc>
   </set>
  </array>
  <array name="atomtypes" >
   <dimension dim="1">type</dimension>
   <field type="int">atomspertype</field>
   <field type="string">element</field>
   <field>mass</field>
   <field>valence</field>
   <field type="string">pseudopotential</field>
   <set>
    <rc><c>   1</c><c>Al</c><c>     26.98200000</c><c>      3.00000000</c><c>  PAW Al                                </c></rc>
   </set>
  </array>
 </atominfo>
 <structure name="initialpos" >
  <crystal>
   <varray name="basis" >
    <v>       0.00000000       2.02500000       2.02500000 </v>
    <v>       2.02500000       0.00000000       2.02500000 </v>
    <v>       2.02500000       2.02500000       0.00000000 </v>
   </varray>
   <i name="volume">     16.60753125 </i>
   <varray name="rec_basis" >
    <v>      -0.24691358       0.24691358       0.24691358 </v>
    <v>       0.24691358      -0.24691358       0.24691358 </v>
    <v>       0.24691358       0.24691358      -0.24691358 </v>
   </varray>
  </crystal>
  <varray name="positions" >
   <v>       0.00000000       0.00000000       0.00000000 </v>
  </varray>
 </structure>
 <calculation>
  <scstep>
   <time name="dav">    0.30    0.30</time>
   <time name="total">    0.32    0.32</time>
   <energy>
    <i name="alphaZ">     -0.15332662 </i>
    <i name="ewald">    -73.35670894 </i>
    <i name="hartreedc">     -0.10550201 </i>
    <i name="XCdc">    -26.40556105 </i>
    <i name="pawpsdc">     35.65910006 </i>
    <i name="pawaedc">     -3.60582523 </i>
    <i name="eentropy">     -0.00043136 </i>
    <i name="bandstr">     11.06925260 </i>
    <i name="atom">     53.68800704 </i>
    <i name="e_fr_energy">     -3.21099550 </i>
    <i name="e_wo_entrp">     -3.21056414 </i>
    <i name="e_0_energy">     -3.21085171 </i>
   </energy>
  </scstep>
  <scstep>
   <time name="dav">    0.31    0.31</time>
   <time name="total">    0.31    0.31</time>
   <energy>
    <i name="e_fr_energy">     -3.70727179 </i>
    <i name="e_wo_entrp">     -3.70711509 </i>
    <i name="e_0_energy">     -3.70721956 </i>
   </energy>
  </scstep>
  <scstep>
   <time name="dav">    0.28    0.29</time>
   <time name="total">    0.29    0.29</time>
   <energy>
    <i name="e_fr_energy">     -3.70902681 </i>
    <i name="e_wo_entrp">     -3.70887157 </i>
    <i name="e_0_energy">     -3.70897507 </i>
   </energy>
  </scstep>
  <scstep>
   <time name="dav">    0.31    0.31</time>
   <time name="total">    0.32    0.32</time>
   <energy>
    <i name="e_fr_energy">     -3.70902804 </i>
    <i name="e_wo_entrp">     -3.70887279 </i>
    <i name="e_0_energy">     -3.70897629 </i>
   </energy>
  </scstep>
  <scstep>
   <time name="dav">    0.30    0.30</time>
   <time name="total">    0.32    0.32</time>
   <energy>
    <i name="e_fr_energy">     -3.70902804 </i>
    <i name="e_wo_entrp">     -3.70887280 </i>
    <i name="e_0_energy">     -3.70897629 </i>
   </energy>
  </scstep>
  <scstep>
   <time name="dav">    0.24    0.24</time>
   <time name="total">    0.28    0.28</time>
   <energy>
    <i name="e_fr_energy">     -3.69735780 </i>
    <i name="e_wo_entrp">     -3.69716832 </i>
    <i name="e_0_energy">     -3.69729464 </i>
   </energy>
  </scstep>
  <scstep>
   <time name="dav">    0.24    0.24</time>
   <time name="total">    0.27    0.28</time>
   <energy>
    <i name="e_fr_energy">     -3.68964744 </i>
    <i name="e_wo_entrp">     -3.68939321 </i>
    <i name="e_0_energy">     -3.68956270 </i>
   </energy>
  </scstep>
  <scstep>
   <time name="dav">    0.32    0.32</time>
   <time name="total">    0.36    0.36</time>
   <energy>
    <i name="e_fr_energy">     -3.68965549 </i>
    <i name="e_wo_entrp">     -3.68940163 </i>
    <i name="e_0_energy">     -3.68957087 </i>
   </energy>
  </scstep>
  <scstep>
   <time name="dav">    0.22    0.22</time>
   <time name="total">    0.25    0.26</time>
   <energy>
    <i name="e_fr_energy">     -3.68965696 </i>
    <i name="e_wo_entrp">     -3.68940371 </i>
    <i name="e_0_energy">     -3.68957255 </i>
   </energy>
  </scstep>
  <scstep>
   <time name="dav">    0.16    0.16</time>
   <time name="total">    0.18    0.18</time>
   <energy>
    <i name="alphaZ">     -0.15332662 </i>
    <i name="ewald">    -73.35670894 </i>
    <i name="hartreedc">     -0.10459165 </i>
    <i name="XCdc">    -26.29586773 </i>
    <i name="pawpsdc">     35.89647864 </i>
    <i name="pawaedc">     -3.86335620 </i>
    <i name="eentropy">     -0.00025324 </i>
    <i name="bandstr">     10.49996202 </i>
    <i name="atom">     53.68800704 </i>
    <i name="e_fr_energy">     -3.68965669 </i>
    <i name="e_wo_entrp">     -3.68940345 </i>
    <i name="e_0_energy">     -3.68957228 </i>
   </energy>
  </scstep>
  <structure>
   <crystal>
    <varray name="basis" >
     <v>       0.00000000       2.02500000       2.02500000 </v>
     <v>       2.02500000       0.00000000       2.02500000 </v>
     <v>       2.02500000       2.02500000       0.00000000 </v>
    </varray>
    <i name="volume">     16.60753125 </i>
    <varray name="rec_basis" >
     <v>      -0.24691358       0.24691358       0.24691358 </v>
     <v>       0.24691358      -0.24691358       0.24691358 </v>
     <v>       0.24691358       0.24691358      -0.24691358 </v>
    </varray>
   </crystal>
   <varray name="positions" >
    <v>       0.00000000       0.00000000       0.00000000 </v>
   </varray>
  </structure>
  <varray name="forces" >
   <v>       0.00000000       0.00000000       0.00000000 </v>
  </varray>
  <varray name="stress" >
   <v>      -2.38528250       0.00000000       0.00000000 </v>
   <v>       0.00000000      -2.38528250       0.00000000 </v>
   <v>       0.00000000       0.00000000      -2.38528250 </v>
  </varray>
  <energy>
   <i name="e_fr_energy">     -3.68965669 </i>
   <i name="e_wo_entrp">     -3.68957228 </i>
   <i name="e_0_energy">     -0.00025324 </i>
  </energy>
  <time name="totalsc">    3.12    3.16</time>
  <eigenvalues>
   <array>
    <dimension dim="1">band</dimension>
    <dimension dim="2">kpoint</dimension>
    <dimension dim="3">spin</dimension>
    <field>eigene</field>
    <field>occ</field>
    <set>
     <set comment="spin 1">
      <set comment="kpoint 1">
       <r>   -3.1119    1.0000 </r>
       <r>   19.1939    0.0000 </r>
       <r>   20.2540    0.0000 </r>
       <r>   20.2540    0.0000 </r>
       <r>   22.2721    0.0000 </r>
       <r>   22.2721    0.0000 </r>
      </set>
      <set comment="kpoint 2">
       <r>   -2.7519    1.0000 </r>
       <r>   16.5274    0.0000 </r>
       <r>   18.2165    0.0000 </r>
       <r>   20.5854    0.0000 </r>
       <r>   22.4733    0.0000 </r>
       <r>   22.9465    0.0000 </r>
      </set>
      <set comment="kpoint 3">
       <r>   -1.8552    1.0000 </r>
       <r>   12.6253    0.0000 </r>
       <r>   17.4527    0.0000 </r>
       <r>   19.9686    0.0000 </r>
       <r>   22.2788    0.0000 </r>
       <r>   22.7617    0.0000 </r>
      </set>
      <set comment="kpoint 4">
       <r>   -0.4324    1.0000 </r>
       <r>    9.0149    0.0000 </r>
       <r>   17.1542    0.0000 </r>
       <r>   19.6859    0.0000 </r>
       <r>   20.5310    0.0000 </r>
       <r>   21.8793    0.0000 </r>
      </set>
      <set comment="kpoint 5">
       <r>    1.5015    1.0000 </r>
       <r>    5.8172    1.0000 </r>
       <r>   17.3228    0.0000 </r>
       <r>   19.0889    0.0000 </r>
       <r>   19.9122    0.0000 </r>
       <r>   20.4890    0.0000 </r>
      </set>
      <set comment="kpoint 6">
       <r>    3.0610    1.0000 </r>
       <r>    3.9427    1.0000 </r>
       <r>   17.9605    0.0000 </r>
       <r>   18.1702    0.0000 </r>
       <r>   19.5348    0.0000 </r>
       <r>   20.5232    0.0000 </r>
      </set>
      <set comment="kpoint 7">
       <r>    0.8012    1.0000 </r>
       <r>    6.8344    1.0000 </r>
       <r>   17.6980    0.0000 </r>
       <r>   19.0102    0.0000 </r>
       <r>   19.0899    0.0000 </r>
       <r>   21.5966    0.0000 </r>
      </set>
      <set comment="kpoint 8">
       <r>   -0.9643    1.0000 </r>
       <r>   10.1766    0.0000 </r>
       <r>   17.6855    0.0000 </r>
       <r>   18.9989    0.0000 </r>
       <r>   20.6132    0.0000 </r>
       <r>   22.9657    0.0000 </r>
      </set>
      <set comment="kpoint 9">
       <r>   -2.2133    1.0000 </r>
       <r>   13.9121    0.0000 </r>
       <r>   18.1263    0.0000 </r>
       <r>   19.3835    0.0000 </r>
       <r>   22.4154    0.0000 </r>
       <r>   23.1849    0.0000 </r>
      </set>
      <set comment="kpoint 10">
       <r>   -2.9319    1.0000 </r>
       <r>   17.8820    0.0000 </r>
       <r>   19.0109    0.0000 </r>
       <r>   19.9227    0.0000 </r>
       <r>   21.7991    0.0000 </r>
       <r>   23.3553    0.0000 </r>
      </set>
      <set comment="kpoint 11">
       <r>   -2.5721    1.0000 </r>
       <r>   16.6321    0.0000 </r>
       <r>   17.8088    0.0000 </r>
       <r>   18.8594    0.0000 </r>
       <r>   21.1056    0.0000 </r>
       <r>   22.5880    0.0000 </r>
      </set>
      <set comment="kpoint 12">
       <r>   -1.8552    1.0000 </r>
       <r>   14.1158    0.0000 </r>
       <r>   16.0166    0.0000 </r>
       <r>   19.1957    0.0000 </r>
       <r>   20.0291    0.0000 </r>
       <r>   21.6086    0.0000 </r>
      </set>
      <set comment="kpoint 13">
       <r>   -0.6096    1.0000 </r>
       <r>   10.4813    0.0000 </r>
       <r>   15.4973    0.0000 </r>
       <r>   18.0068    0.0000 </r>
       <r>   19.0360    0.0000 </r>
       <r>   23.6980    0.0000 </r>
      </set>
      <set comment="kpoint 14">
       <r>    1.1515    1.0000 </r>
       <r>    7.1647    1.0000 </r>
       <r>   15.4889    0.0000 </r>
       <r>   16.4158    0.0000 </r>
       <r>   19.1168    0.0000 </r>
       <r>   22.8020    0.0000 </r>
      </set>
      <set comment="kpoint 15">
       <r>    3.4028    1.0000 </r>
       <r>    4.2860    1.0000 </r>
       <r>   15.2559    0.0000 </r>
       <r>   16.0036    0.0000 </r>
       <r>   19.6335    0.0000 </r>
       <r>   21.7267    0.0000 </r>
      </set>
      <set comment="kpoint 16">
       <r>    1.8502    1.0000 </r>
       <r>    6.1501    1.0000 </r>
       <r>   14.6211    0.0000 </r>
       <r>   16.9486    0.0000 </r>
       <r>   20.5656    0.0000 </r>
       <r>   21.1265    0.0000 </r>
      </set>
      <set comment="kpoint 17">
       <r>   -0.0790    1.0000 </r>
       <r>    9.3210    0.0000 </r>
       <r>   14.4748    0.0000 </r>
       <r>   18.3681    0.0000 </r>
       <r>   20.8279    0.0000 </r>
       <r>   22.0688    0.0000 </r>
      </set>
      <set comment="kpoint 18">
       <r>   -1.4982    1.0000 </r>
       <r>   12.8118    0.0000 </r>
       <r>   14.8948    0.0000 </r>
       <r>   20.2072    0.0000 </r>
       <r>   20.9645    0.0000 </r>
       <r>   22.9903    0.0000 </r>
      </set>
      <set comment="kpoint 19">
       <r>   -2.3925    1.0000 </r>
       <r>   15.2533    0.0000 </r>
       <r>   17.0775    0.0000 </r>
       <r>   20.1387    0.0000 </r>
       <r>   21.9526    0.0000 </r>
       <r>   22.9184    0.0000 </r>
      </set>
      <set comment="kpoint 20">
       <r>   -1.3201    1.0000 </r>
       <r>   14.5325    0.0000 </r>
       <r>   15.8172    0.0000 </r>
       <r>   16.7977    0.0000 </r>
       <r>   17.4221    0.0000 </r>
       <r>   19.6096    0.0000 </r>
      </set>
      <set comment="kpoint 21">
       <r>   -0.2560    1.0000 </r>
       <r>   12.3012    0.0000 </r>
       <r>   14.2746    0.0000 </r>
       <r>   15.1833    0.0000 </r>
       <r>   17.4743    0.0000 </r>
       <r>   20.1291    0.0000 </r>
      </set>
      <set comment="kpoint 22">
       <r>    1.3249    1.0000 </r>
       <r>    8.9750    0.0000 </r>
       <r>   13.3306    0.0000 </r>
       <r>   14.1149    0.0000 </r>
       <r>   17.6786    0.0000 </r>
       <r>   22.6408    0.0000 </r>
      </set>
      <set comment="kpoint 23">
       <r>    3.4013    1.0000 </r>
       <r>    5.9778    1.0000 </r>
       <r>   12.0402    0.0000 </r>
       <r>   14.4086    0.0000 </r>
       <r>   18.0991    0.0000 </r>
       <r>   24.7334    0.0000 </r>
      </set>
      <set comment="kpoint 24">
       <r>    3.4072    1.0000 </r>
       <r>    5.9544    1.0000 </r>
       <r>   11.2460    0.0000 </r>
       <r>   15.2074    0.0000 </r>
       <r>   18.9568    0.0000 </r>
       <r>   24.0264    0.0000 </r>
      </set>
      <set comment="kpoint 25">
       <r>    1.3265    1.0000 </r>
       <r>    8.8260    0.0000 </r>
       <r>   11.0757    0.0000 </r>
       <r>   16.4841    0.0000 </r>
       <r>   20.2578    0.0000 </r>
       <r>   23.5886    0.0000 </r>
      </set>
      <set comment="kpoint 26">
       <r>   -0.2556    1.0000 </r>
       <r>   10.6600    0.0000 </r>
       <r>   12.8653    0.0000 </r>
       <r>   18.2195    0.0000 </r>
       <r>   21.8604    0.0000 </r>
       <r>   22.1973    0.0000 </r>
      </set>
      <set comment="kpoint 27">
       <r>   -1.3200    1.0000 </r>
       <r>   11.4761    0.0000 </r>
       <r>   16.4270    0.0000 </r>
       <r>   19.7532    0.0000 </r>
       <r>   20.3855    0.0000 </r>
       <r>   23.6788    0.0000 </r>
      </set>
      <set comment="kpoint 28">
       <r>    0.6235    1.0000 </r>
       <r>   12.6707    0.0000 </r>
       <r>   13.0689    0.0000 </r>
       <r>   14.4302    0.0000 </r>
       <r>   15.3215    0.0000 </r>
       <r>   18.3088    0.0000 </r>
      </set>
      <set comment="kpoint 29">
       <r>    2.0172    1.0000 </r>
       <r>   10.6682    0.0000 </r>
       <r>   11.1708    0.0000 </r>
       <r>   13.2033    0.0000 </r>
       <r>   16.3327    0.0000 </r>
       <r>   19.1077    0.0000 </r>
      </set>
      <set comment="kpoint 30">
       <r>    3.8961    1.0000 </r>
       <r>    8.1130    0.0406 </r>
       <r>    9.2561    0.0000 </r>
       <r>   13.2920    0.0000 </r>
       <r>   16.8731    0.0000 </r>
       <r>   21.9466    0.0000 </r>
      </set>
      <set comment="kpoint 31">
       <r>    5.4406    1.0000 </r>
       <r>    6.1553    1.0000 </r>
       <r>    8.3890   -0.0062 </r>
       <r>   13.9262    0.0000 </r>
       <r>   17.6263    0.0000 </r>
       <r>   25.3846    0.0000 </r>
      </set>
      <set comment="kpoint 32">
       <r>    3.2353    1.0000 </r>
       <r>    7.3206    1.0000 </r>
       <r>    9.5735    0.0000 </r>
       <r>   15.0483    0.0000 </r>
       <r>   18.8080    0.0000 </r>
       <r>   25.3512    0.0000 </r>
      </set>
      <set comment="kpoint 33">
       <r>    1.5013    1.0000 </r>
       <r>    7.4754    1.0012 </r>
       <r>   12.7221    0.0000 </r>
       <r>   16.6403    0.0000 </r>
       <r>   20.3812    0.0000 </r>
       <r>   22.3027    0.0000 </r>
      </set>
      <set comment="kpoint 34">
       <r>    0.2737    1.0000 </r>
       <r>    8.0088    0.3523 </r>
       <r>   16.2744    0.0000 </r>
       <r>   18.6618    0.0000 </r>
       <r>   19.6777    0.0000 </r>
       <r>   22.0881    0.0000 </r>
      </set>
      <set comment="kpoint 35">
       <r>    3.2097    1.0000 </r>
       <r>    8.5395   -0.0002 </r>
       <r>   12.2240    0.0000 </r>
       <r>   13.6588    0.0000 </r>
       <r>   14.4833    0.0000 </r>
       <r>   17.5325    0.0000 </r>
      </set>
      <set comment="kpoint 36">
       <r>    4.7966    1.0000 </r>
       <r>    6.9775    1.0000 </r>
       <r>   10.6482    0.0000 </r>
       <r>   12.7185    0.0000 </r>
       <r>   15.8371    0.0000 </r>
       <r>   18.6484    0.0000 </r>
      </set>
      <set comment="kpoint 37">
       <r>    5.3003    1.0000 </r>
       <r>    7.4319    1.0004 </r>
       <r>    8.0524    0.1924 </r>
       <r>   13.1300    0.0000 </r>
       <r>   16.7091    0.0000 </r>
       <r>   21.8019    0.0000 </r>
      </set>
      <set comment="kpoint 38">
       <r>    4.7415    1.0000 </r>
       <r>    5.6450    1.0000 </r>
       <r>   10.0803    0.0000 </r>
       <r>   14.0876    0.0000 </r>
       <r>   17.7875    0.0000 </r>
       <r>   25.3993    0.0000 </r>
      </set>
      <set comment="kpoint 39">
       <r>    3.7452    1.0000 </r>
       <r>    4.6235    1.0000 </r>
       <r>   13.1852    0.0000 </r>
       <r>   15.5247    0.0000 </r>
       <r>   19.2416    0.0000 </r>
       <r>   22.7978    0.0000 </r>
      </set>
      <set comment="kpoint 40">
       <r>    2.3722    1.0000 </r>
       <r>    4.9651    1.0000 </r>
       <r>   16.5940    0.0000 </r>
       <r>   17.4030    0.0000 </r>
       <r>   20.0067    0.0000 </r>
       <r>   20.8526    0.0000 </r>
      </set>
      <set comment="kpoint 41">
       <r>    4.6281    1.0000 </r>
       <r>    6.8056    1.0000 </r>
       <r>   12.0568    0.0000 </r>
       <r>   13.5046    0.0000 </r>
       <r>   14.3149    0.0000 </r>
       <r>   17.3700    0.0000 </r>
      </set>
      <set comment="kpoint 42">
       <r>    3.3816    1.0000 </r>
       <r>    8.7037    0.0000 </r>
       <r>   10.8169    0.0000 </r>
       <r>   12.8801    0.0000 </r>
       <r>   16.0028    0.0000 </r>
       <r>   18.8038    0.0000 </r>
      </set>
      <set comment="kpoint 43">
       <r>    2.5378    1.0000 </r>
       <r>    8.4672   -0.0013 </r>
       <r>   11.2138    0.0000 </r>
       <r>   13.6161    0.0000 </r>
       <r>   17.1985    0.0000 </r>
       <r>   22.2295    0.0000 </r>
      </set>
      <set comment="kpoint 44">
       <r>    2.1965    1.0000 </r>
       <r>    6.4868    1.0000 </r>
       <r>   14.1439    0.0000 </r>
       <r>   14.9002    0.0000 </r>
       <r>   18.5531    0.0000 </r>
       <r>   23.7064    0.0000 </r>
      </set>
      <set comment="kpoint 45">
       <r>    1.8433    1.0000 </r>
       <r>   10.5311    0.0000 </r>
       <r>   12.5581    0.0000 </r>
       <r>   13.9675    0.0000 </r>
       <r>   14.8190    0.0000 </r>
       <r>   17.8482    0.0000 </r>
      </set>
      <set comment="kpoint 46">
       <r>    0.7992    1.0000 </r>
       <r>   11.6313    0.0000 </r>
       <r>   12.8365    0.0000 </r>
       <r>   13.7020    0.0000 </r>
       <r>   16.8232    0.0000 </r>
       <r>   19.5533    0.0000 </r>
      </set>
      <set comment="kpoint 47">
       <r>    0.2733    1.0000 </r>
       <r>    9.6467    0.0000 </r>
       <r>   14.6978    0.0000 </r>
       <r>   15.6530    0.0000 </r>
       <r>   18.3037    0.0000 </r>
       <r>   23.1606    0.0000 </r>
      </set>
      <set comment="kpoint 48">
       <r>   -0.4329    1.0000 </r>
       <r>   13.7092    0.0000 </r>
       <r>   14.9875    0.0000 </r>
       <r>   15.0479    0.0000 </r>
       <r>   15.9887    0.0000 </r>
       <r>   18.9033    0.0000 </r>
      </set>
      <set comment="kpoint 49">
       <r>   -1.1421    1.0000 </r>
       <r>   13.1296    0.0000 </r>
       <r>   15.0807    0.0000 </r>
       <r>   17.5714    0.0000 </r>
       <r>   18.2720    0.0000 </r>
       <r>   20.8168    0.0000 </r>
      </set>
      <set comment="kpoint 50">
       <r>   -2.0341    1.0000 </r>
       <r>   15.5078    0.0000 </r>
       <r>   16.7407    0.0000 </r>
       <r>   17.7759    0.0000 </r>
       <r>   19.8915    0.0000 </r>
       <r>   20.4390    0.0000 </r>
      </set>
      <set comment="kpoint 51">
       <r>   -2.5721    1.0000 </r>
       <r>   15.1891    0.0000 </r>
       <r>   19.3297    0.0000 </r>
       <r>   19.3297    0.0000 </r>
       <r>   22.4849    0.0000 </r>
       <r>   23.7778    0.0000 </r>
      </set>
      <set comment="kpoint 52">
       <r>   -2.0341    1.0000 </r>
       <r>   13.9614    0.0000 </r>
       <r>   15.9605    0.0000 </r>
       <r>   21.2157    0.0000 </r>
       <r>   22.0208    0.0000 </r>
       <r>   23.5384    0.0000 </r>
      </set>
      <set comment="kpoint 53">
       <r>   -0.9643    1.0000 </r>
       <r>   11.6564    0.0000 </r>
       <r>   13.8214    0.0000 </r>
       <r>   19.9875    0.0000 </r>
       <r>   22.0316    0.0000 </r>
       <r>   22.2969    0.0000 </r>
      </set>
      <set comment="kpoint 54">
       <r>    0.6254    1.0000 </r>
       <r>    8.3170   -0.0177 </r>
       <r>   13.5311    0.0000 </r>
       <r>   18.3178    0.0000 </r>
       <r>   20.2924    0.0000 </r>
       <r>   22.2455    0.0000 </r>
      </set>
      <set comment="kpoint 55">
       <r>    2.7182    1.0000 </r>
       <r>    5.3000    1.0000 </r>
       <r>   13.8353    0.0000 </r>
       <r>   17.0789    0.0000 </r>
       <r>   18.9689    0.0000 </r>
       <r>   22.5627    0.0000 </r>
      </set>
      <set comment="kpoint 56">
       <r>    2.7171    1.0000 </r>
       <r>    5.3050    1.0000 </r>
       <r>   14.6446    0.0000 </r>
       <r>   16.2995    0.0000 </r>
       <r>   18.1114    0.0000 </r>
       <r>   23.3256    0.0000 </r>
      </set>
      <set comment="kpoint 57">
       <r>    0.6251    1.0000 </r>
       <r>    8.3363   -0.0138 </r>
       <r>   15.9389    0.0000 </r>
       <r>   15.9843    0.0000 </r>
       <r>   17.7271    0.0000 </r>
       <r>   24.5248    0.0000 </r>
      </set>
      <set comment="kpoint 58">
       <r>   -0.9644    1.0000 </r>
       <r>   11.7814    0.0000 </r>
       <r>   16.1326    0.0000 </r>
       <r>   17.6442    0.0000 </r>
       <r>   17.8243    0.0000 </r>
       <r>   22.1725    0.0000 </r>
      </set>
      <set comment="kpoint 59">
       <r>   -1.6766    1.0000 </r>
       <r>   12.7705    0.0000 </r>
       <r>   17.0560    0.0000 </r>
       <r>   18.6220    0.0000 </r>
       <r>   20.1616    0.0000 </r>
       <r>   22.9342    0.0000 </r>
      </set>
      <set comment="kpoint 60">
       <r>   -0.7868    1.0000 </r>
       <r>   11.8194    0.0000 </r>
       <r>   13.9500    0.0000 </r>
       <r>   17.8609    0.0000 </r>
       <r>   20.1477    0.0000 </r>
       <r>   22.3716    0.0000 </r>
      </set>
      <set comment="kpoint 61">
       <r>    0.6253    1.0000 </r>
       <r>    9.8263    0.0000 </r>
       <r>   12.0486    0.0000 </r>
       <r>   15.9487    0.0000 </r>
       <r>   21.4387    0.0000 </r>
       <r>   22.5240    0.0000 </r>
      </set>
      <set comment="kpoint 62">
       <r>    2.5439    1.0000 </r>
       <r>    6.7996    1.0000 </r>
       <r>   12.0595    0.0000 </r>
       <r>   14.4988    0.0000 </r>
       <r>   21.1486    0.0000 </r>
       <r>   21.9268    0.0000 </r>
      </set>
      <set comment="kpoint 63">
       <r>    4.0815    1.0000 </r>
       <r>    4.9661    1.0000 </r>
       <r>   12.6613    0.0000 </r>
       <r>   13.5550    0.0000 </r>
       <r>   20.2205    0.0000 </r>
       <r>   22.5493    0.0000 </r>
      </set>
      <set comment="kpoint 64">
       <r>    1.8484    1.0000 </r>
       <r>    7.8087    0.9957 </r>
       <r>   12.9913    0.0000 </r>
       <r>   13.8978    0.0000 </r>
       <r>   19.6744    0.0000 </r>
       <r>   23.5145    0.0000 </r>
      </set>
      <set comment="kpoint 65">
       <r>    0.0970    1.0000 </r>
       <r>   10.9879    0.0000 </r>
       <r>   13.1406    0.0000 </r>
       <r>   15.4956    0.0000 </r>
       <r>   19.3869    0.0000 </r>
       <r>   21.7579    0.0000 </r>
      </set>
      <set comment="kpoint 66">
       <r>   -0.0794    1.0000 </r>
       <r>   10.9507    0.0000 </r>
       <r>   15.3078    0.0000 </r>
       <r>   15.3596    0.0000 </r>
       <r>   16.9723    0.0000 </r>
       <r>   21.4906    0.0000 </r>
      </set>
      <set comment="kpoint 67">
       <r>    1.1497    1.0000 </r>
       <r>   10.3198    0.0000 </r>
       <r>   12.4412    0.0000 </r>
       <r>   13.2717    0.0000 </r>
       <r>   18.7573    0.0000 </r>
       <r>   21.2253    0.0000 </r>
      </set>
      <set comment="kpoint 68">
       <r>    2.8842    1.0000 </r>
       <r>    8.6542    0.0000 </r>
       <r>   10.8109    0.0000 </r>
       <r>   11.6612    0.0000 </r>
       <r>   20.3935    0.0000 </r>
       <r>   22.6212    0.0000 </r>
      </set>
      <set comment="kpoint 69">
       <r>    5.0809    1.0000 </r>
       <r>    5.9603    1.0000 </r>
       <r>   10.3540    0.0000 </r>
       <r>   11.3284    0.0000 </r>
       <r>   21.1157    0.0000 </r>
       <r>   23.4781    0.0000 </r>
      </set>
      <set comment="kpoint 70">
       <r>    3.5742    1.0000 </r>
       <r>    7.6540    1.0232 </r>
       <r>    9.8881    0.0000 </r>
       <r>   12.2514    0.0000 </r>
       <r>   22.0435    0.0000 </r>
       <r>   22.7178    0.0000 </r>
      </set>
      <set comment="kpoint 71">
       <r>    1.6739    1.0000 </r>
       <r>    9.1575    0.0000 </r>
       <r>   11.3785    0.0000 </r>
       <r>   13.7164    0.0000 </r>
       <r>   20.8537    0.0000 </r>
       <r>   22.8360    0.0000 </r>
      </set>
      <set comment="kpoint 72">
       <r>    2.1908    1.0000 </r>
       <r>    9.7646    0.0000 </r>
       <r>   10.8978    0.0000 </r>
       <r>   14.2785    0.0000 </r>
       <r>   15.8085    0.0000 </r>
       <r>   20.4857    0.0000 </r>
      </set>
      <set comment="kpoint 73">
       <r>    3.7251    1.0000 </r>
       <r>    9.0063    0.0000 </r>
       <r>    9.5251    0.0000 </r>
       <r>   11.7259    0.0000 </r>
       <r>   17.9533    0.0000 </r>
       <r>   20.5197    0.0000 </r>
      </set>
      <set comment="kpoint 74">
       <r>    5.6361    1.0000 </r>
       <r>    7.7742    1.0246 </r>
       <r>    8.2132   -0.0354 </r>
       <r>   10.4551    0.0000 </r>
       <r>   19.9222    0.0000 </r>
       <r>   22.2643    0.0000 </r>
      </set>
      <set comment="kpoint 75">
       <r>    5.7580    1.0000 </r>
       <r>    6.4887    1.0000 </r>
       <r>    8.7083    0.0000 </r>
       <r>   11.1241    0.0000 </r>
       <r>   20.9721    0.0000 </r>
       <r>   24.6733    0.0000 </r>
      </set>
      <set comment="kpoint 76">
       <r>    3.7452    1.0000 </r>
       <r>    6.2920    1.0000 </r>
       <r>   11.5203    0.0000 </r>
       <r>   12.4470    0.0000 </r>
       <r>   21.3683    0.0000 </r>
       <r>   22.3401    0.0000 </r>
      </set>
      <set comment="kpoint 77">
       <r>    4.9648    1.0000 </r>
       <r>    7.1441    1.0000 </r>
       <r>    9.3065    0.0000 </r>
       <r>   13.8153    0.0000 </r>
       <r>   15.2969    0.0000 </r>
       <r>   20.0373    0.0000 </r>
      </set>
      <set comment="kpoint 78">
       <r>    5.1329    1.0000 </r>
       <r>    7.3151    1.0000 </r>
       <r>    9.3343    0.0000 </r>
       <r>   11.5553    0.0000 </r>
       <r>   17.7904    0.0000 </r>
       <r>   20.3719    0.0000 </r>
      </set>
      <set comment="kpoint 79">
       <r>    4.2385    1.0000 </r>
       <r>    8.3117   -0.0189 </r>
       <r>    9.5139    0.0000 </r>
       <r>   10.6610    0.0000 </r>
       <r>   20.0797    0.0000 </r>
       <r>   22.3918    0.0000 </r>
      </set>
      <set comment="kpoint 80">
       <r>    3.5531    1.0000 </r>
       <r>    8.8369    0.0000 </r>
       <r>    9.5061    0.0000 </r>
       <r>   13.9698    0.0000 </r>
       <r>   15.4685    0.0000 </r>
       <r>   20.1891    0.0000 </r>
      </set>
      <set comment="kpoint 81">
       <r>    2.3645    1.0000 </r>
       <r>    9.8120    0.0000 </r>
       <r>   11.0030    0.0000 </r>
       <r>   12.0864    0.0000 </r>
       <r>   18.2767    0.0000 </r>
       <r>   20.8077    0.0000 </r>
      </set>
      <set comment="kpoint 82">
       <r>    0.9748    1.0000 </r>
       <r>   10.2813    0.0000 </r>
       <r>   13.0297    0.0000 </r>
       <r>   14.7425    0.0000 </r>
       <r>   16.3135    0.0000 </r>
       <r>   20.9247    0.0000 </r>
      </set>
      <set comment="kpoint 83">
       <r>   -1.4983    1.0000 </r>
       <r>   11.3317    0.0000 </r>
       <r>   18.7573    0.0000 </r>
       <r>   18.7573    0.0000 </r>
       <r>   22.2195    0.0000 </r>
       <r>   22.6074    0.0000 </r>
      </set>
      <set comment="kpoint 84">
       <r>   -0.7868    1.0000 </r>
       <r>   10.3211    0.0000 </r>
       <r>   15.4103    0.0000 </r>
       <r>   20.1199    0.0000 </r>
       <r>   21.0187    0.0000 </r>
       <r>   22.0415    0.0000 </r>
      </set>
      <set comment="kpoint 85">
       <r>    0.4496    1.0000 </r>
       <r>    9.6608    0.0000 </r>
       <r>   11.8989    0.0000 </r>
       <r>   18.1622    0.0000 </r>
       <r>   20.1838    0.0000 </r>
       <r>   23.6039    0.0000 </r>
      </set>
      <set comment="kpoint 86">
       <r>    2.1981    1.0000 </r>
       <r>    7.9904    0.4278 </r>
       <r>   10.2468    0.0000 </r>
       <r>   16.6142    0.0000 </r>
       <r>   18.5554    0.0000 </r>
       <r>   25.2213    0.0000 </r>
      </set>
      <set comment="kpoint 87">
       <r>    4.4267    1.0000 </r>
       <r>    5.2837    1.0000 </r>
       <r>   10.5838    0.0000 </r>
       <r>   15.5253    0.0000 </r>
       <r>   17.3534    0.0000 </r>
       <r>   25.6910    0.0000 </r>
      </set>
      <set comment="kpoint 88">
       <r>    2.8836    1.0000 </r>
       <r>    7.1530    1.0000 </r>
       <r>   11.5498    0.0000 </r>
       <r>   14.9008    0.0000 </r>
       <r>   16.6196    0.0000 </r>
       <r>   23.9489    0.0000 </r>
      </set>
      <set comment="kpoint 89">
       <r>   -0.2556    1.0000 </r>
       <r>    9.1760    0.0000 </r>
       <r>   16.7592    0.0000 </r>
       <r>   18.2748    0.0000 </r>
       <r>   18.4324    0.0000 </r>
       <r>   23.7336    0.0000 </r>
      </set>
      <set comment="kpoint 90">
       <r>    0.8009    1.0000 </r>
       <r>    8.4826   -0.0009 </r>
       <r>   13.6708    0.0000 </r>
       <r>   16.1054    0.0000 </r>
       <r>   20.2433    0.0000 </r>
       <r>   22.7141    0.0000 </r>
      </set>
      <set comment="kpoint 91">
       <r>    2.3704    1.0000 </r>
       <r>    8.1567   -0.0143 </r>
       <r>   10.4053    0.0000 </r>
       <r>   14.3352    0.0000 </r>
       <r>   21.0605    0.0000 </r>
       <r>   23.1078    0.0000 </r>
      </set>
      <set comment="kpoint 92">
       <r>    4.4301    1.0000 </r>
       <r>    6.8184    1.0000 </r>
       <r>    9.0614    0.0000 </r>
       <r>   13.0379    0.0000 </r>
       <r>   19.7909    0.0000 </r>
       <r>   25.0117    0.0000 </r>
      </set>
      <set comment="kpoint 93">
       <r>    4.4084    1.0000 </r>
       <r>    6.9606    1.0000 </r>
       <r>    9.7361    0.0000 </r>
       <r>   12.2472    0.0000 </r>
       <r>   18.9103    0.0000 </r>
       <r>   23.8094    0.0000 </r>
      </set>
      <set comment="kpoint 94">
       <r>    1.6742    1.0000 </r>
       <r>    7.6614    1.0250 </r>
       <r>   13.6810    0.0000 </r>
       <r>   15.3646    0.0000 </r>
       <r>   17.1070    0.0000 </r>
       <r>   24.3222    0.0000 </r>
      </set>
      <set comment="kpoint 95">
       <r>    3.0569    1.0000 </r>
       <r>    7.3013    1.0000 </r>
       <r>   11.6698    0.0000 </r>
       <r>   12.6058    0.0000 </r>
       <r>   19.2194    0.0000 </r>
       <r>   23.9361    0.0000 </r>
      </set>
      <set comment="kpoint 96">
       <r>    4.9195    1.0000 </r>
       <r>    7.3176    1.0000 </r>
       <r>    9.4730    0.0000 </r>
       <r>   10.3740    0.0000 </r>
       <r>   22.3188    0.0000 </r>
       <r>   23.2397    0.0000 </r>
      </set>
      <set comment="kpoint 97">
       <r>    6.3020    1.0000 </r>
       <r>    7.1418    1.0000 </r>
       <r>    8.4572   -0.0016 </r>
       <r>    9.5365    0.0000 </r>
       <r>   22.1840    0.0000 </r>
       <r>   23.9967    0.0000 </r>
      </set>
      <set comment="kpoint 98">
       <r>    4.2376    1.0000 </r>
       <r>    6.8117    1.0000 </r>
       <r>    9.5812    0.0000 </r>
       <r>   14.5922    0.0000 </r>
       <r>   16.2884    0.0000 </r>
       <r>   23.6910    0.0000 </r>
      </set>
      <set comment="kpoint 99">
       <r>    5.7995    1.0000 </r>
       <r>    6.7730    1.0000 </r>
       <r>    8.0568    0.1783 </r>
       <r>   12.0774    0.0000 </r>
       <r>   18.7538    0.0000 </r>
       <r>   23.6993    0.0000 </r>
      </set>
      <set comment="kpoint 100">
       <r>    5.6319    1.0000 </r>
       <r>    6.6220    1.0000 </r>
       <r>    7.8943    0.8070 </r>
       <r>   14.4372    0.0000 </r>
       <r>   16.1196    0.0000 </r>
       <r>   23.5550    0.0000 </r>
      </set>
      <set comment="kpoint 101">
       <r>    0.0976    1.0000 </r>
       <r>    7.8467    0.9342 </r>
       <r>   18.6276    0.0000 </r>
       <r>   18.6276    0.0000 </r>
       <r>   20.9722    0.0000 </r>
       <r>   20.9722    0.0000 </r>
      </set>
      <set comment="kpoint 102">
       <r>    0.9765    1.0000 </r>
       <r>    6.9978    1.0000 </r>
       <r>   15.4037    0.0000 </r>
       <r>   18.6282    0.0000 </r>
       <r>   20.4605    0.0000 </r>
       <r>   20.9982    0.0000 </r>
      </set>
      <set comment="kpoint 103">
       <r>    2.3718    1.0000 </r>
       <r>    6.6314    1.0000 </r>
       <r>   11.9078    0.0000 </r>
       <r>   16.7702    0.0000 </r>
       <r>   18.6995    0.0000 </r>
       <r>   23.8280    0.0000 </r>
      </set>
      <set comment="kpoint 104">
       <r>    4.2636    1.0000 </r>
       <r>    6.6513    1.0000 </r>
       <r>    8.8985    0.0000 </r>
       <r>   15.3700    0.0000 </r>
       <r>   17.1933    0.0000 </r>
       <r>   27.0885    0.0000 </r>
      </set>
      <set comment="kpoint 105">
       <r>    1.6760    1.0000 </r>
       <r>    5.9859    1.0000 </r>
       <r>   16.8516    0.0000 </r>
       <r>   16.9212    0.0000 </r>
       <r>   18.6342    0.0000 </r>
       <r>   22.3820    0.0000 </r>
      </set>
      <set comment="kpoint 106">
       <r>    2.8898    1.0000 </r>
       <r>    5.4700    1.0000 </r>
       <r>   13.9573    0.0000 </r>
       <r>   14.8331    0.0000 </r>
       <r>   20.5964    0.0000 </r>
       <r>   21.5211    0.0000 </r>
      </set>
      <set comment="kpoint 107">
       <r>    4.5928    1.0000 </r>
       <r>    5.4537    1.0000 </r>
       <r>   10.7377    0.0000 </r>
       <r>   13.2049    0.0000 </r>
       <r>   19.9375    0.0000 </r>
       <r>   23.7456    0.0000 </r>
      </set>
      <set comment="kpoint 108">
       <r>    3.9105    1.0000 </r>
       <r>    4.7998    1.0000 </r>
       <r>   12.5385    0.0000 </r>
       <r>   15.8360    0.0000 </r>
       <r>   17.6661    0.0000 </r>
       <r>   24.4400    0.0000 </r>
      </set>
      <set comment="kpoint 109">
       <r>    2.1982    1.0000 </r>
       <r>    4.7949    1.0000 </r>
       <r>   18.9424    0.0000 </r>
       <r>   18.9424    0.0000 </r>
       <r>   19.7466    0.0000 </r>
       <r>   19.7466    0.0000 </r>
      </set>
      <set comment="kpoint 110">
       <r>    3.2329    1.0000 </r>
       <r>    4.1142    1.0000 </r>
       <r>   15.8898    0.0000 </r>
       <r>   17.5474    0.0000 </r>
       <r>   19.3152    0.0000 </r>
       <r>   21.4644    0.0000 </r>
      </set>
     </set>
    </set>
   </array>
  </eigenvalues>
  <separator name="orbital magnetization" >
   <v name="MAGDIPOLOUT">      0.00000000      0.00000000      0.00000000</v>
  </separator>
 </calculation>
 <structure name="finalpos" >
  <crystal>
   <varray name="basis" >
    <v>       0.00000000       2.02500000       2.02500000 </v>
    <v>       2.02500000       0.00000000       2.02500000 </v>
    <v>       2.02500000       2.02500000       0.00000000 </v>
   </varray>
   <i name="volume">     16.60753125 </i>
   <varray name="rec_basis" >
    <v>      -0.24691358       0.24691358       0.24691358 </v>
    <v>       0.24691358      -0.24691358       0.24691358 </v>
    <v>       0.24691358       0.24691358      -0.24691358 </v>
   </varray>
  </crystal>
  <varray name="positions" >
   <v>       0.00000000       0.00000000       0.00000000 </v>
  </varray>
 </structure>
</modeling>
